 vasp.6.3.2 27Jun22 (build Jul  3 2023 11:46:21) complex                         
 executed on    LinuxNV_CrayMPICH date 2024.04.22  00:24:29
 running on    4 total cores
 distrk:  each k-point on    4 cores,    1 groups
 distr:  one band on NCORE=   1 cores,    4 groups


--------------------------------------------------------------------------------------------------------


 INCAR:
   ADDGRID = True
   ALGO = Normal
   EDIFF = 0.0007
   ENCUT = 520.0
   IBRION = -1
   ICHARG = 0
   ISIF = 3
   ISMEAR = -5
   ISPIN = 2
   KPOINT_BSE = -1 0 0 0
   LAECHG = True
   LASPH = True
   LCHARG = True
   LELF = True
   LORBIT = 11
   LREAL = Auto
   LVHAR = True
   LWAVE = False
   MAGMOM = 2*0.6 2*7.0 10*0.6
   NELM = 1000
   NSW = 0
   PREC = accurate
   SIGMA = 0.05

 POTCAR:    PAW_PBE Rb_sv 06Sep2000               
 POTCAR:    PAW_PBE Eu 23Dec2003                  
 POTCAR:    PAW_PBE Ge_d 03Jul2007                
 POTCAR:    PAW_PBE S 06Sep2000                   
 POTCAR:    PAW_PBE Rb_sv 06Sep2000               
   SHA256 =  06c38fe1ec7709d96d3959f5f2c66fec330a93b52b042a8fb2dfe6a3a3fb06c1 Rb_sv/POTCAR          
   COPYR  = (c) Copyright 06Sep2000 Georg Kresse                                                    
   COPYR  = This file is part of the software VASP. Any use, copying, and all other rights are regul
   COPYR  = If you do not have a valid VASP license, you may not use, copy or distribute this file. 
   VRHFIN =Rb: 4s4p5s                                                                               
   LEXCH  = PE                                                                                      
   EATOM  =   662.5034 eV,   48.6926 Ry                                                             
                                                                                                    
   TITEL  = PAW_PBE Rb_sv 06Sep2000                                                                 
   LULTRA =        F    use ultrasoft PP ?                                                          
   IUNSCR =        1    unscreen: 0-lin 1-nonlin 2-no                                               
   RPACOR =    2.200    partial core radius                                                         
   POMASS =   85.468; ZVAL   =    9.000    mass and valenz                                          
   RCORE  =    2.500    outmost cutoff radius                                                       
   RWIGS  =    4.570; RWIGS  =    2.418    wigner-seitz radius (au A)                               
   ENMAX  =  220.112; ENMIN  =  165.084 eV                                                          
   RCLOC  =    2.200    cutoff for local pot                                                        
   LCOR   =        T    correct aug charges                                                         
   LPAW   =        T    paw PP                                                                      
   EAUG   =  423.861                                                                                
   DEXC   =    0.000                                                                                
   RMAX   =    2.546    core radius for proj-oper                                                   
   RAUG   =    1.300    factor for augmentation sphere                                              
   RDEP   =    2.541    radius for radial grids                                                     
   RDEPT  =    2.044    core radius for aug-charge                                                  
                                                                                                    
   Atomic configuration                                                                             
   10 entries                                                                                       
     n  l   j            E        occ.                                                              
     1  0  0.50    -15031.5419   2.0000                                                             
     2  0  0.50     -2007.8842   2.0000                                                             
     2  1  1.50     -1779.8144   6.0000                                                             
     3  0  0.50      -297.9619   2.0000                                                             
     3  1  1.50      -224.8335   6.0000                                                             
     3  2  2.50      -103.9539  10.0000                                                             
     4  0  0.50       -31.8932   2.0000                                                             
     5  0  0.50        -2.2327   0.9990                                                             
     4  1  1.50       -15.9645   6.0000                                                             
     4  2  1.50        -0.0020   0.0010                                                             
   Description                                                                                      
     l       E           TYP  RCUT    TYP  RCUT                                                     
     0    -31.8932387     23  2.500                                                                 
     0     -2.2326525     23  2.500                                                                 
     1    -15.9644597     23  2.500                                                                 
     1    -17.3250423     23  2.500                                                                 
     2     -0.0020100     23  2.500                                                                 
  local pseudopotential read in
  partial core-charges read in
  partial kinetic energy density read in
  atomic valenz-charges read in
  non local Contribution for L=            0  read in
    real space projection operators read in
  non local Contribution for L=            0  read in
    real space projection operators read in
  non local Contribution for L=            1  read in
    real space projection operators read in
  non local Contribution for L=            1  read in
    real space projection operators read in
  non local Contribution for L=            2  read in
    real space projection operators read in
    PAW grid and wavefunctions read in
 
   number of l-projection  operators is LMAX  =            5
   number of lm-projection operators is LMMAX =           13
 
 POTCAR:    PAW_PBE Eu 23Dec2003                  
   SHA256 =  ed303d27e7c5191953f9b15539336e6f36d9037c1d2e92e80c13d733697cb93d Eu/POTCAR             
   COPYR  = (c) Copyright 23Dec2003 Georg Kresse                                                    
   COPYR  = This file is part of the software VASP. Any use, copying, and all other rights are regul
   COPYR  = If you do not have a valid VASP license, you may not use, copy or distribute this file. 
   VRHFIN =Eu : [core=Kr4d]                                                                         
   LEXCH  = PE                                                                                      
   EATOM  =  2619.8085 eV,  192.5505 Ry                                                             
                                                                                                    
   TITEL  = PAW_PBE Eu 23Dec2003                                                                    
   LULTRA =        F    use ultrasoft PP ?                                                          
   IUNSCR =        1    unscreen: 0-lin 1-nonlin 2-no                                               
   RPACOR =    2.300    partial core radius                                                         
   POMASS =  151.965; ZVAL   =   17.000    mass and valenz                                          
   RCORE  =    2.800    outmost cutoff radius                                                       
   RWIGS  =    2.800; RWIGS  =    1.482    wigner-seitz radius (au A)                               
   ENMAX  =  249.668; ENMIN  =  187.251 eV                                                          
   RCLOC  =    2.308    cutoff for local pot                                                        
   LCOR   =        T    correct aug charges                                                         
   LPAW   =        T    paw PP                                                                      
   EAUG   =  549.628                                                                                
   DEXC   =    0.000                                                                                
   RMAX   =    2.870    core radius for proj-oper                                                   
   RAUG   =    1.300    factor for augmentation sphere                                              
   RDEP   =    2.887    radius for radial grids                                                     
   RDEPT  =    2.221    core radius for aug-charge                                                  
                                                                                                    
   Atomic configuration                                                                             
   14 entries                                                                                       
     n  l   j            E        occ.                                                              
     1  0  0.50    -48354.7667   2.0000                                                             
     2  0  0.50     -7939.6472   2.0000                                                             
     2  1  1.50     -7072.6637   6.0000                                                             
     3  0  0.50     -1747.1875   2.0000                                                             
     3  1  1.50     -1477.5221   6.0000                                                             
     3  2  2.50     -1117.4686  10.0000                                                             
     4  0  0.50      -346.8682   2.0000                                                             
     4  1  1.50      -258.1962   6.0000                                                             
     4  2  2.50      -134.7724  10.0000                                                             
     5  0  0.50       -44.6510   2.0000                                                             
     6  0  0.50        -3.6227   2.0000                                                             
     5  1  1.50       -23.7639   6.0000                                                             
     5  2  2.50        -1.3130   0.0000                                                             
     4  3  2.50        -2.7310   7.0000                                                             
   Description                                                                                      
     l       E           TYP  RCUT    TYP  RCUT                                                     
     0    -44.6510453     23  2.400                                                                 
     0     -3.6226685     23  2.400                                                                 
     1    -23.7638687     23  2.400                                                                 
     1     27.2116520     23  2.400                                                                 
     2     -1.3129622     23  2.500                                                                 
     2     13.6058260     23  2.500                                                                 
     3     -2.7309948     23  2.800                                                                 
     3     -3.4014565     23  2.800                                                                 
  local pseudopotential read in
  partial core-charges read in
  partial kinetic energy density read in
  atomic valenz-charges read in
  non local Contribution for L=            0  read in
    real space projection operators read in
  non local Contribution for L=            0  read in
    real space projection operators read in
  non local Contribution for L=            1  read in
    real space projection operators read in
  non local Contribution for L=            1  read in
    real space projection operators read in
  non local Contribution for L=            2  read in
    real space projection operators read in
  non local Contribution for L=            2  read in
    real space projection operators read in
  non local Contribution for L=            3  read in
    real space projection operators read in
  non local Contribution for L=            3  read in
    real space projection operators read in
    PAW grid and wavefunctions read in
 
   number of l-projection  operators is LMAX  =            8
   number of lm-projection operators is LMMAX =           32
 
 POTCAR:    PAW_PBE Ge_d 03Jul2007                
   SHA256 =  944b26c40d2d7c4f4eb1ff3a2e8dbfdd7129146276cd341854bfd5c0e57780ed Ge_d/POTCAR           
   COPYR  = (c) Copyright 03Jul2007 Georg Kresse                                                    
   COPYR  = This file is part of the software VASP. Any use, copying, and all other rights are regul
   COPYR  = If you do not have a valid VASP license, you may not use, copy or distribute this file. 
   VRHFIN =Ge: 3d4s4p                                                                               
   LEXCH  = PE                                                                                      
   EATOM  =  2596.2402 eV,  190.8183 Ry                                                             
                                                                                                    
   TITEL  = PAW_PBE Ge_d 03Jul2007                                                                  
   LULTRA =        F    use ultrasoft PP ?                                                          
   IUNSCR =        1    unscreen: 0-lin 1-nonlin 2-no                                               
   RPACOR =    2.000    partial core radius                                                         
   POMASS =   72.610; ZVAL   =   14.000    mass and valenz                                          
   RCORE  =    2.300    outmost cutoff radius                                                       
   RWIGS  =    2.300; RWIGS  =    1.217    wigner-seitz radius (au A)                               
   ENMAX  =  310.294; ENMIN  =  232.720 eV                                                          
   ICORE  =        3    local potential                                                             
   LCOR   =        T    correct aug charges                                                         
   LPAW   =        T    paw PP                                                                      
   EAUG   =  531.356                                                                                
   DEXC   =    0.000                                                                                
   RMAX   =    2.342    core radius for proj-oper                                                   
   RAUG   =    1.300    factor for augmentation sphere                                              
   RDEP   =    2.318    radius for radial grids                                                     
   RDEPT  =    1.783    core radius for aug-charge                                                  
                                                                                                    
   Atomic configuration                                                                             
    9 entries                                                                                       
     n  l   j            E        occ.                                                              
     1  0  0.50    -10959.8463   2.0000                                                             
     2  0  0.50     -1371.6056   2.0000                                                             
     2  1  1.50     -1198.4791   6.0000                                                             
     3  0  0.50      -168.4733   2.0000                                                             
     3  1  1.50      -115.6019   6.0000                                                             
     3  2  2.50       -29.3106  10.0000                                                             
     4  0  0.50       -11.7309   2.0000                                                             
     4  1  0.50        -3.8952   2.0000                                                             
     4  3  2.50        -4.0817   0.0000                                                             
   Description                                                                                      
     l       E           TYP  RCUT    TYP  RCUT                                                     
     2    -29.3105938     23  2.200                                                                 
     2    -13.6058260     23  2.200                                                                 
     0    -11.7309493     23  2.300                                                                 
     0     -7.4578696     23  2.300                                                                 
     1     -3.8952261     23  2.300                                                                 
     1      6.1178114     23  2.300                                                                 
     3     -1.3605826     23  2.300                                                                 
  local pseudopotential read in
  partial core-charges read in
  partial kinetic energy density read in
  atomic valenz-charges read in
  non local Contribution for L=            2  read in
    real space projection operators read in
  non local Contribution for L=            2  read in
    real space projection operators read in
  non local Contribution for L=            0  read in
    real space projection operators read in
  non local Contribution for L=            0  read in
    real space projection operators read in
  non local Contribution for L=            1  read in
    real space projection operators read in
  non local Contribution for L=            1  read in
    real space projection operators read in
    PAW grid and wavefunctions read in
 
   number of l-projection  operators is LMAX  =            6
   number of lm-projection operators is LMMAX =           18
 
 POTCAR:    PAW_PBE S 06Sep2000                   
   SHA256 =  0fc7481fb0695f01bdc6462160264c5c84044ae9ec85a907d398b887a2bc3132 S/POTCAR              
   COPYR  = (c) Copyright 06Sep2000 Georg Kresse                                                    
   COPYR  = This file is part of the software VASP. Any use, copying, and all other rights are regul
   COPYR  = If you do not have a valid VASP license, you may not use, copy or distribute this file. 
   VRHFIN =S : s2p4                                                                                 
   LEXCH  = PE                                                                                      
   EATOM  =   276.8230 eV,   20.3459 Ry                                                             
                                                                                                    
   TITEL  = PAW_PBE S 06Sep2000                                                                     
   LULTRA =        F    use ultrasoft PP ?                                                          
   IUNSCR =        1    unscreen: 0-lin 1-nonlin 2-no                                               
   RPACOR =    1.500    partial core radius                                                         
   POMASS =   32.066; ZVAL   =    6.000    mass and valenz                                          
   RCORE  =    1.900    outmost cutoff radius                                                       
   RWIGS  =    2.200; RWIGS  =    1.164    wigner-seitz radius (au A)                               
   ENMAX  =  258.689; ENMIN  =  194.016 eV                                                          
   ICORE  =        2    local potential                                                             
   LCOR   =        T    correct aug charges                                                         
   LPAW   =        T    paw PP                                                                      
   EAUG   =  335.092                                                                                
   DEXC   =    0.000                                                                                
   RMAX   =    1.942    core radius for proj-oper                                                   
   RAUG   =    1.300    factor for augmentation sphere                                              
   RDEP   =    1.954    radius for radial grids                                                     
   RDEPT  =    1.744    core radius for aug-charge                                                  
                                                                                                    
   Atomic configuration                                                                             
    6 entries                                                                                       
     n  l   j            E        occ.                                                              
     1  0  0.50     -2405.8406   2.0000                                                             
     2  0  0.50      -211.7007   2.0000                                                             
     2  1  1.50      -156.4958   6.0000                                                             
     3  0  0.50       -17.2562   2.0000                                                             
     3  1  0.50        -7.0085   4.0000                                                             
     3  2  1.50        -6.8029   0.0000                                                             
   Description                                                                                      
     l       E           TYP  RCUT    TYP  RCUT                                                     
     0    -17.2561641     23  1.900                                                                 
     0    -15.8743224     23  1.900                                                                 
     1     -7.0085400     23  1.900                                                                 
     1     -2.7779785     23  1.900                                                                 
     2     -6.8029130     23  1.900                                                                 
  local pseudopotential read in
  partial core-charges read in
  partial kinetic energy density read in
  atomic valenz-charges read in
  non local Contribution for L=            0  read in
    real space projection operators read in
  non local Contribution for L=            0  read in
    real space projection operators read in
  non local Contribution for L=            1  read in
    real space projection operators read in
  non local Contribution for L=            1  read in
    real space projection operators read in
    PAW grid and wavefunctions read in
 
   number of l-projection  operators is LMAX  =            4
   number of lm-projection operators is LMMAX =            8
 
 Optimization of the real space projectors (new method)

 maximal supplied QI-value         = 15.12
 optimisation between [QCUT,QGAM] = [ 11.64, 23.28] = [ 37.95,151.78] Ry 
 Optimized for a Real-space Cutoff    1.63 Angstroem

   l    n(q)    QCUT    max X(q) W(low)/X(q) W(high)/X(q)  e(spline) 
   0     11    11.641    11.905    0.26E-04    0.31E-05    0.88E-07
   0     11    11.641    15.029    0.40E-04    0.49E-05    0.17E-06
   1     11    11.641   129.694    0.10E-03    0.47E-04    0.47E-06
   1     11    11.641   129.780    0.10E-03    0.47E-04    0.47E-06
   2     10    11.641    17.083    0.83E-05    0.11E-04    0.75E-07
 Optimization of the real space projectors (new method)

 maximal supplied QI-value         = 13.42
 optimisation between [QCUT,QGAM] = [ 11.67, 23.35] = [ 38.16,152.62] Ry 
 Optimized for a Real-space Cutoff    1.63 Angstroem

   l    n(q)    QCUT    max X(q) W(low)/X(q) W(high)/X(q)  e(spline) 
   0     11    11.673    10.400    0.14E-04    0.18E-05    0.24E-07
   0     11    11.673    10.768    0.21E-04    0.32E-05    0.49E-07
   1     11    11.673     4.094    0.40E-05    0.13E-04    0.93E-07
   1     11    11.673     4.009    0.11E-04    0.46E-04    0.33E-06
   2     10    11.673    29.030    0.79E-04    0.60E-04    0.70E-06
   2     10    11.673    19.941    0.80E-04    0.60E-04    0.71E-06
   3     10    11.673    88.889    0.23E-03    0.29E-03    0.30E-06
   3     10    11.673    76.102    0.23E-03    0.30E-03    0.30E-06
 Optimization of the real space projectors (new method)

 maximal supplied QI-value         = 16.25
 optimisation between [QCUT,QGAM] = [ 11.54, 23.24] = [ 37.28,151.24] Ry 
 Optimized for a Real-space Cutoff    1.53 Angstroem

   l    n(q)    QCUT    max X(q) W(low)/X(q) W(high)/X(q)  e(spline) 
   2     10    11.539     8.936    0.13E-03    0.18E-03    0.23E-06
   2     10    11.539     8.183    0.16E-03    0.22E-03    0.28E-06
   0     11    11.539    62.777    0.61E-04    0.20E-04    0.15E-06
   0     11    11.539    50.556    0.58E-04    0.19E-04    0.14E-06
   1     10    11.539    38.422    0.20E-04    0.75E-05    0.16E-06
   1     10    11.539    22.623    0.19E-04    0.69E-05    0.15E-06
 Optimization of the real space projectors (new method)

 maximal supplied QI-value         = 19.84
 optimisation between [QCUT,QGAM] = [ 11.51, 23.22] = [ 37.09,150.92] Ry 
 Optimized for a Real-space Cutoff    1.21 Angstroem

   l    n(q)    QCUT    max X(q) W(low)/X(q) W(high)/X(q)  e(spline) 
   0      8    11.508   187.594    0.96E-04    0.18E-03    0.54E-07
   0      8    11.508   164.243    0.96E-04    0.18E-03    0.54E-07
   1      8    11.508    67.533    0.18E-03    0.65E-04    0.94E-07
   1      8    11.508    50.729    0.18E-03    0.63E-04    0.92E-07
  PAW_PBE Rb_sv 06Sep2000               :
 energy of atom  1       EATOM= -662.5034
 kinetic energy error for atom=    0.0006 (will be added to EATOM!!)
  PAW_PBE Eu 23Dec2003                  :
 energy of atom  2       EATOM=-2619.8085
 kinetic energy error for atom=    0.0015 (will be added to EATOM!!)
  PAW_PBE Ge_d 03Jul2007                :
 energy of atom  3       EATOM=-2596.2402
 kinetic energy error for atom=    0.0028 (will be added to EATOM!!)
  PAW_PBE S 06Sep2000                   :
 energy of atom  4       EATOM= -276.8230
 kinetic energy error for atom=    0.0016 (will be added to EATOM!!)
 
 
 POSCAR: Rb2 Eu2 Ge2 S8
  positions in direct lattice
  No initial velocities read in
 exchange correlation table for  LEXCH =        8
   RHO(1)=    0.500       N(1)  =     2000
   RHO(2)=  100.500       N(2)  =     4000

 VTST: version 4.2, (08/11/21)

 CHAIN: initializing optimizer
 
 OPT: Using VASP Dynamics algorithm
 CHAIN: Read ICHAIN             0
 
 POSCAR: Rb2 Eu2 Ge2 S8
  positions in direct lattice
  No initial velocities read in
 


--------------------------------------------------------------------------------------------------------


 ion  position               nearest neighbor table
   1  0.750  0.232  0.564-  13 3.46   8 3.49   8 3.55   9 3.57   7 3.58  11 3.60  10 3.61  12 3.68
                             5 4.07   6 4.12   6 4.27   3 4.62   2 4.79   2 4.79   2 4.98   2 4.98
   2  0.250  0.768  0.436-  14 3.46   7 3.49   7 3.55  10 3.57   8 3.58  12 3.60   9 3.61  11 3.68
                             6 4.07   5 4.12   5 4.27   4 4.62   1 4.79   1 4.79   1 4.98   1 4.98
   3  0.767  0.266  0.052-  13 2.91   7 2.91  12 2.93  10 2.96  11 2.96   9 3.04  14 3.05   1 4.62

   4  0.267  0.734  0.948-  14 2.91   8 2.91  11 2.93   9 2.96  12 2.96  10 3.04  13 3.05   2 4.62

   5  0.736  0.720  0.173-   7 2.20  13 2.23  12 2.24   9 2.24   1 4.07   2 4.12   2 4.27
   6  0.236  0.280  0.827-   8 2.20  14 2.23  11 2.24  10 2.24   2 4.07   1 4.12   1 4.27
   7  0.746  0.909  0.326-   5 2.20   3 2.91   2 3.49   2 3.55   1 3.58
   8  0.246  0.091  0.674-   6 2.20   4 2.91   1 3.49   1 3.55   2 3.58
   9  0.492  0.481  0.217-   5 2.24   4 2.96   3 3.04   1 3.57   2 3.61
  10  0.992  0.519  0.783-   6 2.24   3 2.96   4 3.04   2 3.57   1 3.61
  11  0.502  0.491  0.797-   6 2.24   4 2.93   3 2.96   1 3.60   2 3.68
  12  0.002  0.509  0.203-   5 2.24   3 2.93   4 2.96   2 3.60   1 3.68
  13  0.684  0.925  0.936-   5 2.23   3 2.91   4 3.05   1 3.46
  14  0.184  0.075  0.064-   6 2.23   4 2.91   3 3.05   2 3.46
 
  LATTYP: Found a simple monoclinic cell.
 ALAT       =     6.8009260000
 B/A-ratio  =     0.9770054843
 C/A-ratio  =     1.3667600864
 COS(beta)  =    -0.3177822026
  
  Lattice vectors:
  
 A1 = (   0.0000000000,   6.8009260000,   0.0000000000)
 A2 = (   6.6445420000,   0.0000000000,   0.0000000000)
 A3 = (   0.0000000000,  -2.9538600000,  -8.8134040000)


Analysis of symmetry for initial positions (statically):
=====================================================================
 Subroutine PRICEL returns:
 Original cell was already a primitive cell.
 

 Routine SETGRP: Setting up the symmetry group for a 
 simple monoclinic supercell.


 Subroutine GETGRP returns: Found  2 space group operations
 (whereof  1 operations were pure point group operations)
 out of a pool of  4 trial point group operations.


The static configuration has the point symmetry C_1 .
 The point group associated with its full space group is C_2 .


Analysis of symmetry for dynamics (positions and initial velocities):
=====================================================================
 Subroutine PRICEL returns:
 Original cell was already a primitive cell.
 

 Routine SETGRP: Setting up the symmetry group for a 
 simple monoclinic supercell.


 Subroutine GETGRP returns: Found  2 space group operations
 (whereof  1 operations were pure point group operations)
 out of a pool of  4 trial point group operations.


The dynamic configuration has the point symmetry C_1 .
 The point group associated with its full space group is C_2 .


Analysis of structural, dynamic, and magnetic symmetry:
=====================================================================
 Subroutine PRICEL returns:
 Original cell was already a primitive cell.
 

 Routine SETGRP: Setting up the symmetry group for a 
 simple monoclinic supercell.


 Subroutine GETGRP returns: Found  2 space group operations
 (whereof  1 operations were pure point group operations)
 out of a pool of  4 trial point group operations.


The overall configuration has the point symmetry C_1 .
 The point group associated with its full space group is C_2 .


 Subroutine INISYM returns: Found  2 space group operations
 (whereof  1 operations are pure point group operations),
 and found     1 'primitive' translations


----------------------------------------------------------------------------------------

                                     Primitive cell                                     

  volume of cell :     398.2693

  direct lattice vectors                    reciprocal lattice vectors
     6.644542000  0.000000000  0.000000000     0.150499463  0.000000000  0.000000000
     0.000000000  6.800926000  0.000000000     0.000000000  0.147038800 -0.049280849
     0.000000000  2.953860000  8.813404000     0.000000000  0.000000000  0.113463538

  length of vectors
     6.644542000  6.800926000  9.295234207     0.150499463  0.155077435  0.113463538

  position of ions in fractional coordinates (direct lattice)
     0.750425000  0.232116000  0.563855000
     0.250425000  0.767884000  0.436145000
     0.766549000  0.265971000  0.052476000
     0.266549000  0.734029000  0.947524000
     0.736150000  0.720163000  0.172989000
     0.236150000  0.279837000  0.827011000
     0.745842000  0.909037000  0.325837000
     0.245842000  0.090963000  0.674163000
     0.491899000  0.481307000  0.217437000
     0.991899000  0.518693000  0.782563000
     0.501633000  0.491334000  0.797030000
     0.001633000  0.508666000  0.202970000
     0.684401000  0.924754000  0.936157000
     0.184401000  0.075246000  0.063843000

  ion indices of the primitive-cell ions
   primitive index   ion index
                 1           1
                 2           2
                 3           3
                 4           4
                 5           5
                 6           6
                 7           7
                 8           8
                 9           9
                10          10
                11          11
                12          12
                13          13
                14          14

----------------------------------------------------------------------------------------

 
 
 KPOINTS: Kpoints from vasprun.xml                

Automatic generation of k-mesh.
 Grid dimensions read from file:
 generate k-points for:    4    4    3

 Generating k-lattice:

  Cartesian coordinates                     Fractional coordinates (reciprocal lattice)
     0.037624866  0.000000000  0.000000000     0.250000000  0.000000000  0.000000000
     0.000000000  0.036759700 -0.012320212     0.000000000  0.250000000  0.000000000
     0.000000000  0.000000000  0.037821179     0.000000000  0.000000000  0.333333333

  Length of vectors
     0.037624866  0.038769359  0.037821179

  Shift w.r.t. Gamma in fractional coordinates (k-lattice)
     0.000000000  0.000000000  0.000000000

 TETIRR: Found    144 inequivalent tetrahedra from      288
 
 Subroutine IBZKPT returns following result:
 ===========================================
 
 Found     21 irreducible k-points:
 
 Following reciprocal coordinates:
            Coordinates               Weight
  0.000000  0.000000  0.000000      1.000000
  0.250000  0.000000  0.000000      2.000000
  0.500000  0.000000  0.000000      1.000000
  0.000000  0.250000  0.000000      2.000000
  0.250000  0.250000  0.000000      4.000000
  0.500000  0.250000  0.000000      2.000000
  0.000000  0.500000  0.000000      1.000000
  0.250000  0.500000  0.000000      2.000000
  0.500000  0.500000  0.000000      1.000000
  0.000000  0.000000  0.333333      2.000000
  0.250000  0.000000  0.333333      4.000000
  0.500000  0.000000  0.333333      2.000000
  0.000000  0.250000  0.333333      2.000000
  0.250000  0.250000  0.333333      4.000000
  0.500000  0.250000  0.333333      2.000000
  0.000000  0.500000  0.333333      2.000000
  0.250000  0.500000  0.333333      4.000000
  0.500000  0.500000  0.333333      2.000000
  0.000000 -0.250000  0.333333      2.000000
  0.250000 -0.250000  0.333333      4.000000
  0.500000 -0.250000  0.333333      2.000000
 
 Following cartesian coordinates:
            Coordinates               Weight
  0.000000  0.000000  0.000000      1.000000
  0.037625  0.000000  0.000000      2.000000
  0.075250  0.000000  0.000000      1.000000
  0.000000  0.036760 -0.012320      2.000000
  0.037625  0.036760 -0.012320      4.000000
  0.075250  0.036760 -0.012320      2.000000
  0.000000  0.073519 -0.024640      1.000000
  0.037625  0.073519 -0.024640      2.000000
  0.075250  0.073519 -0.024640      1.000000
  0.000000  0.000000  0.037821      2.000000
  0.037625  0.000000  0.037821      4.000000
  0.075250  0.000000  0.037821      2.000000
  0.000000  0.036760  0.025501      2.000000
  0.037625  0.036760  0.025501      4.000000
  0.075250  0.036760  0.025501      2.000000
  0.000000  0.073519  0.013181      2.000000
  0.037625  0.073519  0.013181      4.000000
  0.075250  0.073519  0.013181      2.000000
  0.000000 -0.036760  0.050141      2.000000
  0.037625 -0.036760  0.050141      4.000000
  0.075250 -0.036760  0.050141      2.000000
 


--------------------------------------------------------------------------------------------------------




 Dimension of arrays:
   k-points           NKPTS =     21   k-points in BZ     NKDIM =     21   number of bands    NBANDS=     88
   number of dos      NEDOS =    301   number of ions     NIONS =     14
   non local maximal  LDIM  =      8   non local SUM 2l+1 LMDIM =     32
   total plane-waves  NPLWV = 189000
   max r-space proj   IRMAX =   8614   max aug-charges    IRDMAX= 217209
   dimension x,y,z NGX =    50 NGY =   54 NGZ =   70
   dimension x,y,z NGXF=   100 NGYF=  108 NGZF=  140
   support grid    NGXF=   200 NGYF=  216 NGZF=  280
   ions per type =               2   2   2   8
   NGX,Y,Z   is equivalent  to a cutoff of  12.51, 13.20, 12.52 a.u.
   NGXF,Y,Z  is equivalent  to a cutoff of  25.02, 26.40, 25.04 a.u.

 SYSTEM =  unknown system                          
 POSCAR =  Rb2 Eu2 Ge2 S8                          

 Startparameter for this run:
   NWRITE =      2    write-flag & timer
   PREC   = accura    normal or accurate (medium, high low for compatibility)
   ISTART =      0    job   : 0-new  1-cont  2-samecut
   ICHARG =      0    charge: 1-file 2-atom 10-const
   ISPIN  =      2    spin polarized calculation?
   LNONCOLLINEAR =      F non collinear calculations
   LSORBIT =      F    spin-orbit coupling
   INIWAV =      1    electr: 0-lowe 1-rand  2-diag
   LASPH  =      T    aspherical Exc in radial PAW
 Electronic Relaxation 1
   ENCUT  =  520.0 eV  38.22 Ry    6.18 a.u.  12.35 12.65 17.28*2*pi/ulx,y,z
   ENINI  =  520.0     initial cutoff
   ENAUG  =  549.6 eV  augmentation charge cutoff
   NELM   =   1000;   NELMIN=  2; NELMDL= -5     # of ELM steps 
   EDIFF  = 0.7E-03   stopping-criterion for ELM
   LREAL  =      T    real-space projection
   NLSPLINE    = F    spline interpolate recip. space projectors
   LCOMPAT=      F    compatible to vasp.4.4
   GGA_COMPAT  = T    GGA compatible to vasp.4.4-vasp.4.6
   LMAXPAW     = -100 max onsite density
   LMAXMIX     =    2 max onsite mixed and CHGCAR
   VOSKOWN=      0    Vosko Wilk Nusair interpolation
   ROPT   =   -0.00025  -0.00025  -0.00025  -0.00025
 Ionic relaxation
   EDIFFG = 0.7E-02   stopping-criterion for IOM
   NSW    =      0    number of steps for IOM
   NBLOCK =      1;   KBLOCK =      1    inner block; outer block 
   IBRION =     -1    ionic relax: 0-MD 1-quasi-New 2-CG
   NFREE  =      0    steps in history (QN), initial steepest desc. (CG)
   ISIF   =      3    stress and relaxation
   IWAVPR =     10    prediction:  0-non 1-charg 2-wave 3-comb
   ISYM   =      2    0-nonsym 1-usesym 2-fastsym
   LCORR  =      T    Harris-Foulkes like correction to forces

   POTIM  = 0.5000    time-step for ionic-motion
   TEIN   =    0.0    initial temperature
   TEBEG  =    0.0;   TEEND  =   0.0 temperature during run
   SMASS  =  -3.00    Nose mass-parameter (am)
   estimated Nose-frequenzy (Omega)   =  0.10E-29 period in steps = 0.13E+47 mass=  -0.101E-26a.u.
   SCALEE = 1.0000    scale energy and forces
   NPACO  =    256;   APACO  = 10.0  distance and # of slots for P.C.
   PSTRESS=    0.0 pullay stress

  Mass of Ions in am
   POMASS =  85.47151.97 72.61 32.07
  Ionic Valenz
   ZVAL   =   9.00 17.00 14.00  6.00
  Atomic Wigner-Seitz radii
   RWIGS  =  -1.00 -1.00 -1.00 -1.00
  virtual crystal weights 
   VCA    =   1.00  1.00  1.00  1.00
   NELECT =     128.0000    total number of electrons
   NUPDOWN=      -1.0000    fix difference up-down

 DOS related values:
   EMIN   =  10.00;   EMAX   =-10.00  energy-range for DOS
   EFERMI =   0.00
   ISMEAR =    -5;   SIGMA  =   0.05  broadening in eV -4-tet -1-fermi 0-gaus

 Electronic relaxation 2 (details)
   IALGO  =     38    algorithm
   LDIAG  =      T    sub-space diagonalisation (order eigenvalues)
   LSUBROT=      F    optimize rotation matrix (better conditioning)
   TURBO    =      0    0=normal 1=particle mesh
   IRESTART =      0    0=no restart 2=restart with 2 vectors
   NREBOOT  =      0    no. of reboots
   NMIN     =      0    reboot dimension
   EREF     =   0.00    reference energy to select bands
   IMIX   =      4    mixing-type and parameters
     AMIX     =   0.40;   BMIX     =  1.00
     AMIX_MAG =   1.60;   BMIX_MAG =  1.00
     AMIN     =   0.10
     WC   =   100.;   INIMIX=   1;  MIXPRE=   1;  MAXMIX= -45

 Intra band minimization:
   WEIMIN = 0.0000     energy-eigenvalue tresh-hold
   EBREAK =  0.20E-05  absolut break condition
   DEPER  =   0.30     relativ break condition  

   TIME   =   0.40     timestep for ELM

  volume/ion in A,a.u.               =      28.45       191.98
  Fermi-wavevector in a.u.,A,eV,Ry     =   1.121379  2.119100 17.109213  1.257492
  Thomas-Fermi vector in A             =   2.258032
 
 Write flags
   LWAVE        =      F    write WAVECAR
   LDOWNSAMPLE  =      F    k-point downsampling of WAVECAR
   LCHARG       =      T    write CHGCAR
   LVTOT        =      F    write LOCPOT, total local potential
   LVHAR        =      T    write LOCPOT, Hartree potential only
   LELF         =      T    write electronic localiz. function (ELF)
   LORBIT       =     11    0 simple, 1 ext, 2 COOP (PROOUT), +10 PAW based schemes


 Dipole corrections
   LMONO  =      F    monopole corrections only (constant potential shift)
   LDIPOL =      F    correct potential (dipole corrections)
   IDIPOL =      0    1-x, 2-y, 3-z, 4-all directions 
   EPSILON=  1.0000000 bulk dielectric constant

 Exchange correlation treatment:
   GGA     =    --    GGA type
   LEXCH   =     8    internal setting for exchange type
   LIBXC   =     F    Libxc                    
   VOSKOWN =     0    Vosko Wilk Nusair interpolation
   LHFCALC =     F    Hartree Fock is set to
   LHFONE  =     F    Hartree Fock one center treatment
   AEXX    =    0.0000 exact exchange contribution

 Linear response parameters
   LEPSILON=     F    determine dielectric tensor
   LRPA    =     F    only Hartree local field effects (RPA)
   LNABLA  =     F    use nabla operator in PAW spheres
   LVEL    =     F    velocity operator in full k-point grid
   CSHIFT  =0.1000    complex shift for real part using Kramers Kronig
   OMEGAMAX=  -1.0    maximum frequency
   DEG_THRESHOLD= 0.2000000E-02 threshold for treating states as degnerate
   RTIME   =   -0.100 relaxation time in fs
  (WPLASMAI=    0.000 imaginary part of plasma frequency in eV, 0.658/RTIME)
   DFIELD  = 0.0000000 0.0000000 0.0000000 field for delta impulse in time
 
  Optional k-point grid parameters
   LKPOINTS_OPT  =     F    use optional k-point grid
   KPOINTS_OPT_MODE=     1    mode for optional k-point grid
 
 Orbital magnetization related:
   ORBITALMAG=     F  switch on orbital magnetization
   LCHIMAG   =     F  perturbation theory with respect to B field
   DQ        =  0.001000  dq finite difference perturbation B field
   LLRAUG    =     F  two centre corrections for induced B field



--------------------------------------------------------------------------------------------------------


 Static calculation
 charge density and potential will be updated during run
 spin polarized calculation
 Variant of blocked Davidson
 Davidson routine will perform the subspace rotation
 perform sub-space diagonalisation
    after iterative eigenvector-optimisation
 modified Broyden-mixing scheme, WC =      100.0
 initial mixing is a Kerker type mixing with AMIX =  0.4000 and BMIX =      1.0000
 Hartree-type preconditioning will be used
 using additional bands            24
 real space projection scheme for non local part
 use partial core corrections
 calculate Harris-corrections to forces 
   (improved forces if not selfconsistent)
 use gradient corrections 
 use of overlap-Matrix (Vanderbilt PP)
 Fermi weights with tetrahedron method with Bloechl corrections


--------------------------------------------------------------------------------------------------------


  energy-cutoff  :      520.00
  volume of cell :      398.27
      direct lattice vectors                 reciprocal lattice vectors
     6.644542000  0.000000000  0.000000000     0.150499463  0.000000000  0.000000000
     0.000000000  6.800926000  0.000000000     0.000000000  0.147038800 -0.049280849
     0.000000000  2.953860000  8.813404000     0.000000000  0.000000000  0.113463538

  length of vectors
     6.644542000  6.800926000  9.295234207     0.150499463  0.155077435  0.113463538


 
 k-points in units of 2pi/SCALE and weight: Kpoints from vasprun.xml                
   0.00000000  0.00000000  0.00000000       0.021
   0.03762487  0.00000000  0.00000000       0.042
   0.07524973  0.00000000  0.00000000       0.021
   0.00000000  0.03675970 -0.01232021       0.042
   0.03762487  0.03675970 -0.01232021       0.083
   0.07524973  0.03675970 -0.01232021       0.042
   0.00000000  0.07351940 -0.02464042       0.021
   0.03762487  0.07351940 -0.02464042       0.042
   0.07524973  0.07351940 -0.02464042       0.021
   0.00000000  0.00000000  0.03782118       0.042
   0.03762487  0.00000000  0.03782118       0.083
   0.07524973  0.00000000  0.03782118       0.042
   0.00000000  0.03675970  0.02550097       0.042
   0.03762487  0.03675970  0.02550097       0.083
   0.07524973  0.03675970  0.02550097       0.042
   0.00000000  0.07351940  0.01318075       0.042
   0.03762487  0.07351940  0.01318075       0.083
   0.07524973  0.07351940  0.01318075       0.042
   0.00000000 -0.03675970  0.05014139       0.042
   0.03762487 -0.03675970  0.05014139       0.083
   0.07524973 -0.03675970  0.05014139       0.042
 
 k-points in reciprocal lattice and weights: Kpoints from vasprun.xml                
   0.00000000  0.00000000  0.00000000       0.021
   0.25000000  0.00000000  0.00000000       0.042
   0.50000000  0.00000000  0.00000000       0.021
   0.00000000  0.25000000  0.00000000       0.042
   0.25000000  0.25000000  0.00000000       0.083
   0.50000000  0.25000000  0.00000000       0.042
   0.00000000  0.50000000  0.00000000       0.021
   0.25000000  0.50000000  0.00000000       0.042
   0.50000000  0.50000000  0.00000000       0.021
   0.00000000  0.00000000  0.33333333       0.042
   0.25000000  0.00000000  0.33333333       0.083
   0.50000000  0.00000000  0.33333333       0.042
   0.00000000  0.25000000  0.33333333       0.042
   0.25000000  0.25000000  0.33333333       0.083
   0.50000000  0.25000000  0.33333333       0.042
   0.00000000  0.50000000  0.33333333       0.042
   0.25000000  0.50000000  0.33333333       0.083
   0.50000000  0.50000000  0.33333333       0.042
   0.00000000 -0.25000000  0.33333333       0.042
   0.25000000 -0.25000000  0.33333333       0.083
   0.50000000 -0.25000000  0.33333333       0.042
 
 position of ions in fractional coordinates (direct lattice) 
   0.75042500  0.23211600  0.56385500
   0.25042500  0.76788400  0.43614500
   0.76654900  0.26597100  0.05247600
   0.26654900  0.73402900  0.94752400
   0.73615000  0.72016300  0.17298900
   0.23615000  0.27983700  0.82701100
   0.74584200  0.90903700  0.32583700
   0.24584200  0.09096300  0.67416300
   0.49189900  0.48130700  0.21743700
   0.99189900  0.51869300  0.78256300
   0.50163300  0.49133400  0.79703000
   0.00163300  0.50866600  0.20297000
   0.68440100  0.92475400  0.93615700
   0.18440100  0.07524600  0.06384300
 
 position of ions in cartesian coordinates  (Angst):
   4.98623043  3.24415247  4.96948191
   1.66395943  6.51063353  3.84392209
   5.09336703  1.96385585  0.46249219
   1.77109603  7.79093015  8.35091181
   4.89137959  5.40876056  1.52462194
   1.56910859  4.34602544  7.28878206
   4.95577849  7.14477025  2.87173312
   1.63350749  2.61001575  5.94167088
   3.26844357  3.91561175  1.91636013
   6.59071457  5.83917425  6.89704387
   3.33312154  5.69584121  7.02454739
   0.01085054  4.05894479  1.78885661
   4.54753119  9.05446024  8.25072985
   1.22526019  0.70032576  0.56267415
 


--------------------------------------------------------------------------------------------------------


 k-point   1 :   0.0000 0.0000 0.0000  plane waves:   10743
 k-point   2 :   0.2500 0.0000 0.0000  plane waves:   10729
 k-point   3 :   0.5000 0.0000 0.0000  plane waves:   10732
 k-point   4 :   0.0000 0.2500 0.0000  plane waves:   10724
 k-point   5 :   0.2500 0.2500 0.0000  plane waves:   10737
 k-point   6 :   0.5000 0.2500 0.0000  plane waves:   10716
 k-point   7 :   0.0000 0.5000 0.0000  plane waves:   10730
 k-point   8 :   0.2500 0.5000 0.0000  plane waves:   10728
 k-point   9 :   0.5000 0.5000 0.0000  plane waves:   10728
 k-point  10 :   0.0000 0.0000 0.3333  plane waves:   10729
 k-point  11 :   0.2500 0.0000 0.3333  plane waves:   10728
 k-point  12 :   0.5000 0.0000 0.3333  plane waves:   10734
 k-point  13 :   0.0000 0.2500 0.3333  plane waves:   10742
 k-point  14 :   0.2500 0.2500 0.3333  plane waves:   10705
 k-point  15 :   0.5000 0.2500 0.3333  plane waves:   10726
 k-point  16 :   0.0000 0.5000 0.3333  plane waves:   10721
 k-point  17 :   0.2500 0.5000 0.3333  plane waves:   10723
 k-point  18 :   0.5000 0.5000 0.3333  plane waves:   10722
 k-point  19 :   0.0000-0.2500 0.3333  plane waves:   10732
 k-point  20 :   0.2500-0.2500 0.3333  plane waves:   10725
 k-point  21 :   0.5000-0.2500 0.3333  plane waves:   10708

 maximum and minimum number of plane-waves per node :     10743    10705

 maximum number of plane-waves:     10743
 maximum index in each direction: 
   IXMAX=   12   IYMAX=   12   IZMAX=   17
   IXMIN=  -12   IYMIN=  -13   IZMIN=  -17


 serial   3D FFT for wavefunctions
 parallel 3D FFT for charge:
    minimum data exchange during FFTs selected (reduces bandwidth)


 total amount of memory used by VASP MPI-rank0   313963. kBytes
=======================================================================

   base      :      30000. kBytes
   nonlr-proj:      12756. kBytes
   fftplans  :      56228. kBytes
   grid      :      51926. kBytes
   one-center:       1376. kBytes
   wavefun   :     161677. kBytes
 
     INWAV:  cpu time      0.0001: real time      0.0003
 Broyden mixing: mesh for mixing (old mesh)
   NGX = 25   NGY = 25   NGZ = 35
  (NGX  =100   NGY  =108   NGZ  =140)
  gives a total of  21875 points

 charge density for first step will be calculated from the start-wavefunctions


--------------------------------------------------------------------------------------------------------


 Maximum index for non-local projection operator          8306
 Maximum index for augmentation-charges         52696 (set IRDMAX)


--------------------------------------------------------------------------------------------------------


 initial charge from wavefunction
 First call to EWALD:  gamma=   0.241
 Maximum number of real-space cells 3x 3x 2
 Maximum number of reciprocal cells 3x 3x 3

    FEWALD:  cpu time      0.0012: real time      0.0012


--------------------------------------- Iteration      1(   1)  ---------------------------------------


    POTLOK:  cpu time      0.1111: real time      0.1501
    SETDIJ:  cpu time      1.6532: real time      1.6544
     EDDAV:  cpu time      5.3645: real time      5.3779
 BZINTS: Fermi energy:   12.220572;  128.000000 electrons
         Band energy:-0.121468E+05;  BLOECHL correction:   -1.758180
       DOS:  cpu time      0.1241: real time      0.1242
    --------------------------------------------
      LOOP:  cpu time      7.2530: real time      7.3066

 eigenvalue-minimisations  : 12728
 total energy-change (2. order) :-0.5014153E+04  (-0.1360363E+05)
 number of electron     128.0000000 magnetization      -0.0000000
 augmentation part        6.9347568 magnetization       0.0063617

 Free energy of the ion-electron system (eV)
  ---------------------------------------------------
  alpha Z        PSCENC =       436.26784685
  Ewald energy   TEWEN  =     -7282.05732486
  -Hartree energ DENC   =      -201.20702646
  -exchange      EXHF   =         0.00000000
  -V(xc)+E(xc)   XCENC  =       296.09695482
  PAW double counting   =    293330.73265421  -293418.82610003
  entropy T*S    EENTRO =         0.00000000
  eigenvalues    EBANDS =    -12146.82614242
  atomic energy  EATOM  =     13971.66574758
  Solvation  Ediel_sol  =         0.00000000
  ---------------------------------------------------
  free energy    TOTEN  =     -5014.15339032 eV

  energy without entropy =    -5014.15339032  energy(sigma->0) =    -5014.15339032


--------------------------------------------------------------------------------------------------------




--------------------------------------- Iteration      1(   2)  ---------------------------------------


     EDDAV:  cpu time      4.3919: real time      4.3955
 BZINTS: Fermi energy:  -41.224779;  128.000000 electrons
         Band energy:-0.172143E+05;  BLOECHL correction:   -0.664997
       DOS:  cpu time      0.1108: real time      0.1111
    --------------------------------------------
      LOOP:  cpu time      4.5027: real time      4.5066

 eigenvalue-minimisations  : 10200
 total energy-change (2. order) :-0.5067465E+04  (-0.4832722E+04)
 number of electron     128.0000000 magnetization      -0.0000000
 augmentation part        6.9347568 magnetization       0.0063617

 Free energy of the ion-electron system (eV)
  ---------------------------------------------------
  alpha Z        PSCENC =       436.26784685
  Ewald energy   TEWEN  =     -7282.05732486
  -Hartree energ DENC   =      -201.20702646
  -exchange      EXHF   =         0.00000000
  -V(xc)+E(xc)   XCENC  =       296.09695482
  PAW double counting   =    293330.73265421  -293418.82610003
  entropy T*S    EENTRO =         0.00000000
  eigenvalues    EBANDS =    -17214.29105155
  atomic energy  EATOM  =     13971.66574758
  Solvation  Ediel_sol  =         0.00000000
  ---------------------------------------------------
  free energy    TOTEN  =    -10081.61829945 eV

  energy without entropy =   -10081.61829945  energy(sigma->0) =   -10081.61829945


--------------------------------------------------------------------------------------------------------




--------------------------------------- Iteration      1(   3)  ---------------------------------------


     EDDAV:  cpu time      5.3191: real time      5.3224
 BZINTS: Fermi energy:  -54.120595;  128.000000 electrons
         Band energy:-0.183951E+05;  BLOECHL correction:    0.000000
       DOS:  cpu time      0.0605: real time      0.0605
    --------------------------------------------
      LOOP:  cpu time      5.3796: real time      5.3829

 eigenvalue-minimisations  : 12864
 total energy-change (2. order) :-0.1180839E+04  (-0.1146139E+04)
 number of electron     128.0000000 magnetization      -0.0000000
 augmentation part        6.9347568 magnetization       0.0063617

 Free energy of the ion-electron system (eV)
  ---------------------------------------------------
  alpha Z        PSCENC =       436.26784685
  Ewald energy   TEWEN  =     -7282.05732486
  -Hartree energ DENC   =      -201.20702646
  -exchange      EXHF   =         0.00000000
  -V(xc)+E(xc)   XCENC  =       296.09695482
  PAW double counting   =    293330.73265421  -293418.82610003
  entropy T*S    EENTRO =         0.00000000
  eigenvalues    EBANDS =    -18395.13051899
  atomic energy  EATOM  =     13971.66574758
  Solvation  Ediel_sol  =         0.00000000
  ---------------------------------------------------
  free energy    TOTEN  =    -11262.45776689 eV

  energy without entropy =   -11262.45776689  energy(sigma->0) =   -11262.45776689


--------------------------------------------------------------------------------------------------------




--------------------------------------- Iteration      1(   4)  ---------------------------------------


     EDDAV:  cpu time      5.2441: real time      5.2469
 BZINTS: Fermi energy:  -61.086586;  128.000000 electrons
         Band energy:-0.185929E+05;  BLOECHL correction:   -0.172802
       DOS:  cpu time      0.0969: real time      0.0970
    --------------------------------------------
      LOOP:  cpu time      5.3410: real time      5.3439

 eigenvalue-minimisations  : 12552
 total energy-change (2. order) :-0.1977696E+03  (-0.1619501E+03)
 number of electron     128.0000000 magnetization      -0.0000000
 augmentation part        6.9347568 magnetization       0.0063617

 Free energy of the ion-electron system (eV)
  ---------------------------------------------------
  alpha Z        PSCENC =       436.26784685
  Ewald energy   TEWEN  =     -7282.05732486
  -Hartree energ DENC   =      -201.20702646
  -exchange      EXHF   =         0.00000000
  -V(xc)+E(xc)   XCENC  =       296.09695482
  PAW double counting   =    293330.73265421  -293418.82610003
  entropy T*S    EENTRO =         0.00000000
  eigenvalues    EBANDS =    -18592.90010856
  atomic energy  EATOM  =     13971.66574758
  Solvation  Ediel_sol  =         0.00000000
  ---------------------------------------------------
  free energy    TOTEN  =    -11460.22735646 eV

  energy without entropy =   -11460.22735646  energy(sigma->0) =   -11460.22735646


--------------------------------------------------------------------------------------------------------




--------------------------------------- Iteration      1(   5)  ---------------------------------------


     EDDAV:  cpu time      5.3703: real time      5.3740
 BZINTS: Fermi energy:  -61.397696;  128.000000 electrons
         Band energy:-0.187287E+05;  BLOECHL correction:   -0.273939
       DOS:  cpu time      0.0988: real time      0.0989
    CHARGE:  cpu time      0.2590: real time      0.2591
    MIXING:  cpu time      0.0035: real time      0.0035
    --------------------------------------------
      LOOP:  cpu time      5.7317: real time      5.7355

 eigenvalue-minimisations  : 12904
 total energy-change (2. order) :-0.1357941E+03  (-0.1080185E+03)
 number of electron     128.0000000 magnetization       0.0614591
 augmentation part        6.1584027 magnetization      -0.0584040

 Broyden mixing:
  rms(total) = 0.25806E+03    rms(broyden)= 0.25806E+03
  rms(prec ) = 0.26393E+03
  weight for this iteration     100.00

 Free energy of the ion-electron system (eV)
  ---------------------------------------------------
  alpha Z        PSCENC =       436.26784685
  Ewald energy   TEWEN  =     -7282.05732486
  -Hartree energ DENC   =      -201.20702646
  -exchange      EXHF   =         0.00000000
  -V(xc)+E(xc)   XCENC  =       296.09695482
  PAW double counting   =    293330.73265421  -293418.82610003
  entropy T*S    EENTRO =         0.00000000
  eigenvalues    EBANDS =    -18728.69418430
  atomic energy  EATOM  =     13971.66574758
  Solvation  Ediel_sol  =         0.00000000
  ---------------------------------------------------
  free energy    TOTEN  =    -11596.02143220 eV

  energy without entropy =   -11596.02143220  energy(sigma->0) =   -11596.02143220


--------------------------------------------------------------------------------------------------------




--------------------------------------- Iteration      1(   6)  ---------------------------------------


    POTLOK:  cpu time      0.0105: real time      0.0114
    SETDIJ:  cpu time      1.6435: real time      1.6442
     EDDAV:  cpu time      5.2862: real time      5.2889
 BZINTS: Fermi energy:   -9.182678;  128.000000 electrons
         Band energy:-0.525544E+04;  BLOECHL correction:   -0.042936
       DOS:  cpu time      0.1003: real time      0.1003
    CHARGE:  cpu time      0.2560: real time      0.2560
    MIXING:  cpu time      0.0042: real time      0.0071
    --------------------------------------------
      LOOP:  cpu time      7.3006: real time      7.3080

 eigenvalue-minimisations  : 12696
 total energy-change (2. order) : 0.9542019E+04  (-0.2413071E+04)
 number of electron     128.0000000 magnetization       0.1454788
 augmentation part        8.6517102 magnetization      -0.1133782

 Broyden mixing:
  rms(total) = 0.69702E+02    rms(broyden)= 0.69698E+02
  rms(prec ) = 0.75344E+02
  weight for this iteration     100.00

 eigenvalues of (default mixing * dielectric matrix)
  average eigenvalue GAMMA=   0.7965
  0.7965

 Free energy of the ion-electron system (eV)
  ---------------------------------------------------
  alpha Z        PSCENC =       436.26784685
  Ewald energy   TEWEN  =     -7282.05732486
  -Hartree energ DENC   =     -3909.76130925
  -exchange      EXHF   =         0.00000000
  -V(xc)+E(xc)   XCENC  =       439.37596927
  PAW double counting   =   4119534.67903414 -4119988.73296296
  entropy T*S    EENTRO =         0.00000000
  eigenvalues    EBANDS =     -5255.43986433
  atomic energy  EATOM  =     13971.66574758
  Solvation  Ediel_sol  =         0.00000000
  ---------------------------------------------------
  free energy    TOTEN  =     -2054.00286356 eV

  energy without entropy =    -2054.00286356  energy(sigma->0) =    -2054.00286356


--------------------------------------------------------------------------------------------------------




--------------------------------------- Iteration      1(   7)  ---------------------------------------


    POTLOK:  cpu time      0.0106: real time      0.0109
    SETDIJ:  cpu time      1.6355: real time      1.6360
     EDDAV:  cpu time      5.2411: real time      5.2444
 BZINTS: Fermi energy:  -13.224787;  128.000000 electrons
         Band energy:-0.383178E+04;  BLOECHL correction:   -0.123026
       DOS:  cpu time      0.1087: real time      0.1087
    CHARGE:  cpu time      0.2557: real time      0.2558
    MIXING:  cpu time      0.0040: real time      0.0040
    --------------------------------------------
      LOOP:  cpu time      7.2555: real time      7.2598

 eigenvalue-minimisations  : 12664
 total energy-change (2. order) : 0.1116997E+04  (-0.1201729E+04)
 number of electron     128.0000002 magnetization       0.1272399
 augmentation part       39.0306142 magnetization       0.0060592

 Broyden mixing:
  rms(total) = 0.84694E+02    rms(broyden)= 0.84694E+02
  rms(prec ) = 0.87353E+02
  weight for this iteration     100.00

 eigenvalues of (default mixing * dielectric matrix)
  average eigenvalue GAMMA=   0.4772
  0.7396  0.2147

 Free energy of the ion-electron system (eV)
  ---------------------------------------------------
  alpha Z        PSCENC =       436.26784685
  Ewald energy   TEWEN  =     -7282.05732486
  -Hartree energ DENC   =     -3931.47634894
  -exchange      EXHF   =         0.00000000
  -V(xc)+E(xc)   XCENC  =       423.48849073
  PAW double counting   =   2832139.43512237 -2832862.55109737
  entropy T*S    EENTRO =         0.00000000
  eigenvalues    EBANDS =     -3831.77809064
  atomic energy  EATOM  =     13971.66574758
  Solvation  Ediel_sol  =         0.00000000
  ---------------------------------------------------
  free energy    TOTEN  =      -937.00565429 eV

  energy without entropy =     -937.00565429  energy(sigma->0) =     -937.00565429


--------------------------------------------------------------------------------------------------------




--------------------------------------- Iteration      1(   8)  ---------------------------------------


    POTLOK:  cpu time      0.0106: real time      0.0112
    SETDIJ:  cpu time      1.6431: real time      1.6437
     EDDAV:  cpu time      5.5515: real time      5.5542
 BZINTS: Fermi energy:   -7.391152;  128.000000 electrons
         Band energy:-0.336748E+04;  BLOECHL correction:   -0.026946
       DOS:  cpu time      0.0984: real time      0.0985
    CHARGE:  cpu time      0.2549: real time      0.2550
    MIXING:  cpu time      0.0045: real time      0.0045
    --------------------------------------------
      LOOP:  cpu time      7.5630: real time      7.5670

 eigenvalue-minimisations  : 13344
 total energy-change (2. order) : 0.7240039E+02  (-0.2881551E+03)
 number of electron     128.0000000 magnetization       0.1178497
 augmentation part        7.7930012 magnetization      -0.0060977

 Broyden mixing:
  rms(total) = 0.78781E+02    rms(broyden)= 0.78781E+02
  rms(prec ) = 0.80137E+02
  weight for this iteration     100.00

 eigenvalues of (default mixing * dielectric matrix)
  average eigenvalue GAMMA=   0.3827
  0.7178  0.2151  0.2151

 Free energy of the ion-electron system (eV)
  ---------------------------------------------------
  alpha Z        PSCENC =       436.26784685
  Ewald energy   TEWEN  =     -7282.05732486
  -Hartree energ DENC   =     -4219.81519220
  -exchange      EXHF   =         0.00000000
  -V(xc)+E(xc)   XCENC  =       431.71462853
  PAW double counting   =   2390982.47567788 -2391817.37843920
  entropy T*S    EENTRO =         0.00000000
  eigenvalues    EBANDS =     -3367.47821313
  atomic energy  EATOM  =     13971.66574758
  Solvation  Ediel_sol  =         0.00000000
  ---------------------------------------------------
  free energy    TOTEN  =      -864.60526855 eV

  energy without entropy =     -864.60526855  energy(sigma->0) =     -864.60526855


--------------------------------------------------------------------------------------------------------




--------------------------------------- Iteration      1(   9)  ---------------------------------------


    POTLOK:  cpu time      0.0102: real time      0.0112
    SETDIJ:  cpu time      1.6429: real time      1.6439
     EDDAV:  cpu time      4.4153: real time      4.4180
 BZINTS: Fermi energy:  -14.477500;  128.000000 electrons
         Band energy:-0.410049E+04;  BLOECHL correction:   -0.016452
       DOS:  cpu time      0.0903: real time      0.0903
    CHARGE:  cpu time      0.2563: real time      0.2565
    MIXING:  cpu time      0.0039: real time      0.0039
    --------------------------------------------
      LOOP:  cpu time      6.4189: real time      6.4239

 eigenvalue-minimisations  : 10240
 total energy-change (2. order) :-0.2395299E+03  (-0.6615487E+02)
 number of electron     128.0000002 magnetization       0.1302776
 augmentation part       36.3357777 magnetization       0.0589569

 Broyden mixing:
  rms(total) = 0.72259E+02    rms(broyden)= 0.72259E+02
  rms(prec ) = 0.74503E+02
  weight for this iteration     100.00

 eigenvalues of (default mixing * dielectric matrix)
  average eigenvalue GAMMA=   0.5690
  0.7547  0.6456  0.6456  0.2301

 Free energy of the ion-electron system (eV)
  ---------------------------------------------------
  alpha Z        PSCENC =       436.26784685
  Ewald energy   TEWEN  =     -7282.05732486
  -Hartree energ DENC   =     -3805.13551360
  -exchange      EXHF   =         0.00000000
  -V(xc)+E(xc)   XCENC  =       417.33984083
  PAW double counting   =   1924963.22582683 -1925704.95556300
  entropy T*S    EENTRO =         0.00000000
  eigenvalues    EBANDS =     -4100.48606316
  atomic energy  EATOM  =     13971.66574758
  Solvation  Ediel_sol  =         0.00000000
  ---------------------------------------------------
  free energy    TOTEN  =     -1104.13520254 eV

  energy without entropy =    -1104.13520254  energy(sigma->0) =    -1104.13520254


--------------------------------------------------------------------------------------------------------




--------------------------------------- Iteration      1(  10)  ---------------------------------------


    POTLOK:  cpu time      0.0106: real time      0.0114
    SETDIJ:  cpu time      1.6471: real time      1.6482
     EDDAV:  cpu time      4.5055: real time      4.5083
 BZINTS: Fermi energy:  -10.697017;  128.000000 electrons
         Band energy:-0.334989E+04;  BLOECHL correction:    0.000000
       DOS:  cpu time      0.0510: real time      0.0510
    CHARGE:  cpu time      0.2533: real time      0.2534
    MIXING:  cpu time      0.0041: real time      0.0041
    --------------------------------------------
      LOOP:  cpu time      6.4716: real time      6.4764

 eigenvalue-minimisations  : 10568
 total energy-change (2. order) : 0.3379624E+03  (-0.9780540E+02)
 number of electron     128.0000002 magnetization       0.0920345
 augmentation part       33.0040040 magnetization       0.0957732

 Broyden mixing:
  rms(total) = 0.52688E+02    rms(broyden)= 0.52688E+02
  rms(prec ) = 0.55953E+02
  weight for this iteration     100.00

 eigenvalues of (default mixing * dielectric matrix)
  average eigenvalue GAMMA=   0.8272
  1.2569  1.2569  0.6926  0.6926  0.2372

 Free energy of the ion-electron system (eV)
  ---------------------------------------------------
  alpha Z        PSCENC =       436.26784685
  Ewald energy   TEWEN  =     -7282.05732486
  -Hartree energ DENC   =     -4111.25414108
  -exchange      EXHF   =         0.00000000
  -V(xc)+E(xc)   XCENC  =       431.87926901
  PAW double counting   =   1076688.19829616 -1077550.98041053
  entropy T*S    EENTRO =         0.00000000
  eigenvalues    EBANDS =     -3349.89209560
  atomic energy  EATOM  =     13971.66574758
  Solvation  Ediel_sol  =         0.00000000
  ---------------------------------------------------
  free energy    TOTEN  =      -766.17281246 eV

  energy without entropy =     -766.17281246  energy(sigma->0) =     -766.17281246


--------------------------------------------------------------------------------------------------------




--------------------------------------- Iteration      1(  11)  ---------------------------------------


    POTLOK:  cpu time      0.0102: real time      0.0116
    SETDIJ:  cpu time      1.6456: real time      1.6466
     EDDAV:  cpu time      4.6725: real time      4.6749
 BZINTS: Fermi energy:   -2.235452;  128.000000 electrons
         Band energy:-0.242215E+04;  BLOECHL correction:   -0.008513
       DOS:  cpu time      0.0931: real time      0.0931
    CHARGE:  cpu time      0.2561: real time      0.2563
    MIXING:  cpu time      0.0043: real time      0.0043
    --------------------------------------------
      LOOP:  cpu time      6.6816: real time      6.6868

 eigenvalue-minimisations  : 10872
 total energy-change (2. order) : 0.2851601E+03  (-0.4419536E+02)
 number of electron     128.0000000 magnetization       0.0313122
 augmentation part        4.5695985 magnetization       0.0240309

 Broyden mixing:
  rms(total) = 0.35763E+02    rms(broyden)= 0.35763E+02
  rms(prec ) = 0.38701E+02
  weight for this iteration     100.00

 eigenvalues of (default mixing * dielectric matrix)
  average eigenvalue GAMMA=   1.0023
  2.8024  1.0102  1.0102  0.4716  0.4716  0.2479

 Free energy of the ion-electron system (eV)
  ---------------------------------------------------
  alpha Z        PSCENC =       436.26784685
  Ewald energy   TEWEN  =     -7282.05732486
  -Hartree energ DENC   =     -4618.32967248
  -exchange      EXHF   =         0.00000000
  -V(xc)+E(xc)   XCENC  =       448.93237789
  PAW double counting   =    512341.27835580  -513356.62025402
  entropy T*S    EENTRO =         0.00000000
  eigenvalues    EBANDS =     -2422.14983299
  atomic energy  EATOM  =     13971.66574758
  Solvation  Ediel_sol  =         0.00000000
  ---------------------------------------------------
  free energy    TOTEN  =      -481.01275623 eV

  energy without entropy =     -481.01275623  energy(sigma->0) =     -481.01275623


--------------------------------------------------------------------------------------------------------




--------------------------------------- Iteration      1(  12)  ---------------------------------------


    POTLOK:  cpu time      0.0102: real time      0.0114
    SETDIJ:  cpu time      1.4967: real time      1.4972
     EDDAV:  cpu time      4.5571: real time      4.5597
 BZINTS: Fermi energy:    1.540932;  128.000000 electrons
         Band energy:-0.148588E+04;  BLOECHL correction:   -0.008150
       DOS:  cpu time      0.0918: real time      0.0922
    CHARGE:  cpu time      0.2553: real time      0.2554
    MIXING:  cpu time      0.0051: real time      0.0051
    --------------------------------------------
      LOOP:  cpu time      6.4161: real time      6.4211

 eigenvalue-minimisations  : 10648
 total energy-change (2. order) :-0.1838144E+03  (-0.1051897E+03)
 number of electron     128.0000002 magnetization       0.0793350
 augmentation part       37.0223603 magnetization       0.0426534

 Broyden mixing:
  rms(total) = 0.31636E+02    rms(broyden)= 0.31636E+02
  rms(prec ) = 0.37281E+02
  weight for this iteration     100.00

 eigenvalues of (default mixing * dielectric matrix)
  average eigenvalue GAMMA=   0.8598
  1.7994  1.3917  0.7056  0.7056  0.6746  0.4909  0.2507

 Free energy of the ion-electron system (eV)
  ---------------------------------------------------
  alpha Z        PSCENC =       436.26784685
  Ewald energy   TEWEN  =     -7282.05732486
  -Hartree energ DENC   =     -5642.04455995
  -exchange      EXHF   =         0.00000000
  -V(xc)+E(xc)   XCENC  =       498.53341889
  PAW double counting   =    133665.51675608  -134826.82829016
  entropy T*S    EENTRO =         0.00000000
  eigenvalues    EBANDS =     -1485.88079782
  atomic energy  EATOM  =     13971.66574758
  Solvation  Ediel_sol  =         0.00000000
  ---------------------------------------------------
  free energy    TOTEN  =      -664.82720340 eV

  energy without entropy =     -664.82720340  energy(sigma->0) =     -664.82720340


--------------------------------------------------------------------------------------------------------




--------------------------------------- Iteration      1(  13)  ---------------------------------------


    POTLOK:  cpu time      0.0102: real time      0.0115
    SETDIJ:  cpu time      1.5418: real time      1.5424
     EDDAV:  cpu time      3.9800: real time      3.9824
 BZINTS: Fermi energy:   -0.201423;  128.000000 electrons
         Band energy:-0.165116E+04;  BLOECHL correction:   -0.038786
       DOS:  cpu time      0.0929: real time      0.0929
    CHARGE:  cpu time      0.2570: real time      0.2574
    MIXING:  cpu time      0.0045: real time      0.0045
    --------------------------------------------
      LOOP:  cpu time      5.8863: real time      5.8911

 eigenvalue-minimisations  :  9024
 total energy-change (2. order) : 0.2884182E+03  (-0.2299217E+02)
 number of electron     128.0000002 magnetization      -0.0340278
 augmentation part       35.6435764 magnetization       0.5410836

 Broyden mixing:
  rms(total) = 0.17592E+02    rms(broyden)= 0.17592E+02
  rms(prec ) = 0.23699E+02
  weight for this iteration     100.00

 eigenvalues of (default mixing * dielectric matrix)
  average eigenvalue GAMMA=   0.7844
  1.8772  1.3230  0.7615  0.7615  0.6793  0.4330  0.2540  0.1858

 Free energy of the ion-electron system (eV)
  ---------------------------------------------------
  alpha Z        PSCENC =       436.26784685
  Ewald energy   TEWEN  =     -7282.05732486
  -Hartree energ DENC   =     -5220.84803597
  -exchange      EXHF   =         0.00000000
  -V(xc)+E(xc)   XCENC  =       470.77372147
  PAW double counting   =     20015.22648505   -21116.27409774
  entropy T*S    EENTRO =         0.00000000
  eigenvalues    EBANDS =     -1651.16330886
  atomic energy  EATOM  =     13971.66574758
  Solvation  Ediel_sol  =         0.00000000
  ---------------------------------------------------
  free energy    TOTEN  =      -376.40896648 eV

  energy without entropy =     -376.40896648  energy(sigma->0) =     -376.40896648


--------------------------------------------------------------------------------------------------------




--------------------------------------- Iteration      1(  14)  ---------------------------------------


    POTLOK:  cpu time      0.0102: real time      0.0114
    SETDIJ:  cpu time      1.5730: real time      1.5739
     EDDAV:  cpu time      4.9054: real time      4.9085
 BZINTS: Fermi energy:    0.049364;  128.000000 electrons
         Band energy:-0.156220E+04;  BLOECHL correction:   -0.034591
       DOS:  cpu time      0.0997: real time      0.0998
    CHARGE:  cpu time      0.2579: real time      0.2581
    MIXING:  cpu time      0.0045: real time      0.0045
    --------------------------------------------
      LOOP:  cpu time      6.8508: real time      6.8562

 eigenvalue-minimisations  : 11576
 total energy-change (2. order) : 0.9841212E+02  (-0.5904688E+01)
 number of electron     128.0000002 magnetization      -0.1726761
 augmentation part       34.6537173 magnetization       0.3811532

 Broyden mixing:
  rms(total) = 0.15119E+02    rms(broyden)= 0.15119E+02
  rms(prec ) = 0.21117E+02
  weight for this iteration     100.00

 eigenvalues of (default mixing * dielectric matrix)
  average eigenvalue GAMMA=   0.8395
  2.3160  0.9237  0.9237  0.8228  0.8228  0.2499  0.4656  0.5154  0.5154

 Free energy of the ion-electron system (eV)
  ---------------------------------------------------
  alpha Z        PSCENC =       436.26784685
  Ewald energy   TEWEN  =     -7282.05732486
  -Hartree energ DENC   =     -5208.80986470
  -exchange      EXHF   =         0.00000000
  -V(xc)+E(xc)   XCENC  =       467.43825970
  PAW double counting   =     16991.35825056   -18091.66065200
  entropy T*S    EENTRO =         0.00000000
  eigenvalues    EBANDS =     -1562.19910527
  atomic energy  EATOM  =     13971.66574758
  Solvation  Ediel_sol  =         0.00000000
  ---------------------------------------------------
  free energy    TOTEN  =      -277.99684215 eV

  energy without entropy =     -277.99684215  energy(sigma->0) =     -277.99684215


--------------------------------------------------------------------------------------------------------




--------------------------------------- Iteration      1(  15)  ---------------------------------------


    POTLOK:  cpu time      0.0101: real time      0.0114
    SETDIJ:  cpu time      1.5680: real time      1.5688
     EDDAV:  cpu time      4.5094: real time      4.5134
 BZINTS: Fermi energy:    0.414987;  128.000000 electrons
         Band energy:-0.124799E+04;  BLOECHL correction:   -0.016711
       DOS:  cpu time      0.0940: real time      0.0940
    CHARGE:  cpu time      0.2569: real time      0.2571
    MIXING:  cpu time      0.0047: real time      0.0047
    --------------------------------------------
      LOOP:  cpu time      6.4432: real time      6.4495

 eigenvalue-minimisations  : 10560
 total energy-change (2. order) : 0.1497546E+03  (-0.6960330E+01)
 number of electron     128.0000002 magnetization      -0.1690115
 augmentation part       35.5085731 magnetization       0.0690098

 Broyden mixing:
  rms(total) = 0.12335E+02    rms(broyden)= 0.12335E+02
  rms(prec ) = 0.16501E+02
  weight for this iteration     100.00

 eigenvalues of (default mixing * dielectric matrix)
  average eigenvalue GAMMA=   0.8206
  2.3375  0.8866  0.8866  0.9042  0.9042  0.6136  0.6136  0.4697  0.2494  0.3408

 Free energy of the ion-electron system (eV)
  ---------------------------------------------------
  alpha Z        PSCENC =       436.26784685
  Ewald energy   TEWEN  =     -7282.05732486
  -Hartree energ DENC   =     -5347.22249920
  -exchange      EXHF   =         0.00000000
  -V(xc)+E(xc)   XCENC  =       467.78751690
  PAW double counting   =     16725.15372136   -17851.84471372
  entropy T*S    EENTRO =         0.00000000
  eigenvalues    EBANDS =     -1247.99257758
  atomic energy  EATOM  =     13971.66574758
  Solvation  Ediel_sol  =         0.00000000
  ---------------------------------------------------
  free energy    TOTEN  =      -128.24228267 eV

  energy without entropy =     -128.24228267  energy(sigma->0) =     -128.24228267


--------------------------------------------------------------------------------------------------------




--------------------------------------- Iteration      1(  16)  ---------------------------------------


    POTLOK:  cpu time      0.0100: real time      0.0112
    SETDIJ:  cpu time      1.5664: real time      1.5672
     EDDAV:  cpu time      4.8575: real time      4.8607
 BZINTS: Fermi energy:    2.373874;  128.000000 electrons
         Band energy:-0.112374E+04;  BLOECHL correction:   -0.000355
[...]
  288          m_sumb_d                              0.000100                          2   4
  289        strnlr                                1.812719                            1   3
  290          rspher_all                            0.103290                          9   4
  291          phaser                                0.496794                        189   4
  292          rpro_isp                              1.206628                        189   4
  293            fftwav_mpi                            0.265184                     8316   5
  294              fftwav                                0.255297                   8316   6
  295                fft3d                                 0.054953                 8316   7
  296            rpromu_acc                            0.444605                     2268   5
  297          m_sumb_d                              0.000011                          1   4
  298        fft3d_mpi                             0.004519                           22   3
  299          fftbrc_mpi                            0.003698                         22   4
  300            fftbas_plan_mpi                       0.003684                       22   5
  301              map_forward                           0.001195                     20   6
  302                map_gather                            0.000246                   10   7
  303                m_alltoallv_z                         0.000145                   10   7
  304                map_scatter                           0.000628                   10   7
  305              map_backward                          0.001836                     24   6
  306                map_gather                            0.000324                   12   7
  307                m_alltoallv_z                         0.000142                   12   7
  308                map_scatter                           0.001144                   12   7
  309        m_sumb_d                              0.000032                            5   3
  310        forhar                                0.002861                            2   3
  311          m_sumb_d                              0.000079                          2   4
  312        strehar                               0.001939                            1   3
  313          m_sumb_d                              0.000039                          1   4
  314        chggra                                0.000867                            1   3
  315          fft3d_mpi                             0.000528                          3   4
  316            fftbrc_mpi                            0.000413                        3   5
  317              fftbas_plan_mpi                       0.000412                      3   6
  318                map_forward                           0.000227                    4   7
  319                  map_gather                            0.000047                  2   8
  320                  m_alltoallv_z                         0.000026                  2   8
  321                  map_scatter                           0.000119                  2   8
  322                map_backward                          0.000100                    2   7
  323                  map_gather                            0.000027                  1   8
  324                  m_alltoallv_z                         0.000011                  1   8
  325                  map_scatter                           0.000044                  1   8
  326          m_sumb_d                              0.000009                          2   4
  327          pothar                                0.000089                          1   4
  328            m_sumb_d                              0.000012                        1   5
  329        brmix                                 0.010605                            1   3
  330          m_sumb_d                              0.000037                          6   4
  331          brpre                                 0.000036                          2   4
  332          setg0                                 0.001344                          1   4
  333          broyd                                 0.007663                          1   4
  334            m_sumb_d                              0.000202                       49   5
  335            brget                                 0.001639                      219   5
  336            brsav                                 0.000349                       47   5
  337        m_bcast_d                             0.000024                            2   3
  338      potlok                                0.047606                              2   2
  339        fft3d_mpi                             0.028933                           36   3
  340          fftbrc_mpi                            0.024712                         36   4
  341            fftbas_plan_mpi                       0.024692                       36   5
  342              map_forward                           0.007185                     40   6
  343                map_gather                            0.002204                   24   7
  344                m_alltoallv_z                         0.002715                   24   7
  345                map_scatter                           0.002035                   24   7
  346              map_backward                          0.005723                     32   6
  347                map_gather                            0.002006                   16   7
  348                m_alltoallv_z                         0.001792                   16   7
  349                map_scatter                           0.001704                   16   7
  350              dfftw_execute                         0.010056                     30   6
  351        m_sumb_d                              0.000029                            5   3
  352        pothar                                0.001861                            2   3
  353          m_sumb_d                              0.000139                          2   4
  354        m_bcast_d                             0.003093                            4   3
  355      potlok_metagga                        0.000000                              1   2
  356      set_dd_magatom                        0.000004                              1   2
  357      set_dd_paw                            1.507217                              1   2
  358        m_sumb_d                              0.136134                            7   3
  359      augmentation_charge                   0.129876                              1   2
  360        fft3d_mpi                             0.063441                            2   3
  361          fftbrc_mpi                            0.056026                          2   4
  362            fftbas_plan_mpi                       0.056025                        2   5
  363              dfftw_execute                         0.034718                      6   6
  364              map_backward                          0.021066                      4   6
  365                map_gather                            0.006909                    2   7
  366                m_alltoallv_z                         0.007114                    2   7
  367                map_scatter                           0.007031                    2   7
  368      fftwav_mpi                            3.661935                           2772   2
  369        fftwav                                3.658427                         2772   3
  370          fft3d                                 3.387090                       2772   4
  371      densta                                2.243637                              1   2
 
 Flat profile
 ============
 
             routine name                   CPU           calls
 ---------------------------------------------------------------
 set_dd_paw                             95.363712          70
 eddav                                  63.868146          72
 lapack                                 60.413146      127557
 raccmu_                                54.755449      127557
 m_sumb_d                               43.076718      392142
 redis_pw                               29.411007      704946
 m_alltoall_d                           12.953755     1856946
 total_time                             12.770864           1
 init_acc                               10.727946           1
 fft3d                                   9.723930      761494
 densta                                  8.703458          73
 phaser                                  8.414337        3297
 dfftw_execute                           7.440068        2124
 eccp                                    6.971974       66528
 redis_proj                              5.976820      893574
 setdij_                                 5.859688          96
 fftwav                                  5.128401      506380
 orth1                                   5.024575      382797
 augmentation_charge                     4.642109          70
 hamiltmu                                3.896564      127557
 racc0mu_acc                             3.777684      127557
 acc_init_cublas                         3.718124           1
 overl                                   3.664340      443742
 w1_copy                                 3.642493      765342
 rpromu_acc                              3.356400       97569
 m_bcast_z                               3.088387      131253
 soft_charge                             2.921187          69
 setup_precond                           2.432819       66528
 m_bcast_d                               2.067732      255259
 overl_mu                                2.021875      127557
 m_alltoallv_z                           1.709082        2825
 pw_charge                               1.682648       47896
 ggemm                                   1.631674      160821
 map_scatter                             1.298822        2825
 fft3d_mpi                               1.195748      257641
 kinhamil                                1.161329      255114
 vhamil                                  1.141528      255114
 acc_init_cusolver                       1.087174           1
 fftext_mpi                              1.085702      255114
 map_gather                              1.077780        2825
 newband                                 1.059752      130581
 depsum                                  1.035349          69
 apply_precond                           1.023925      188586
 set_charge                              0.874364          69
 rpro_isp                                0.690957         273
 fftwav_mpi                              0.680401      506380
 potlok                                  0.360366          70
 acc_cufft_makeplan                      0.278409          19
 broyd                                   0.238801          68
 elmin                                   0.167039           1
 rspher_all                              0.154408          14
 fftbas_plan_mpi                         0.147198        2527
 brmix                                   0.145367          68
 sphpro_fast                             0.117947           2
 lincom                                  0.109136        3066
 w1_projall                              0.098275       94293
 setg0                                   0.091355          70
 brget                                   0.082228       10956
 proall                                  0.075688           1
 orthch                                  0.032673           1
 truncate_high_frequency_w1              0.025949      321642
 brsav                                   0.021536        2891
 force_and_stress                        0.020378           1
 map_backward                            0.017219        2654
 map_forward                             0.016648        2400
 choleski                                0.012884          42
 stufak                                  0.010161           1
 fft_gq                                  0.008060          69
 pothar                                  0.007471          71
 strnlr                                  0.005996           1
 inisym                                  0.004365           1
 forhar                                  0.002782           2
 brpre                                   0.002673         136
 strelo                                  0.002516           1
 fornlr                                  0.002089           1
 strehar                                 0.001900           1
 fftbrc_mpi                              0.001533        2527
 forloc                                  0.001470           1
 strkin                                  0.001278           1
 fewald                                  0.000410           1
 set_dd_magatom                          0.000321          70
 rsp                                     0.000305           1
 vectorpot                               0.000294          69
 brgrid                                  0.000253           1
 chggra                                  0.000241           1
 fordep                                  0.000067           1
 rcp                                     0.000029           1
 crpa_reader                             0.000026           1
 posmap                                  0.000017           2
 acc_cufft_makeplans                     0.000013           3
 potlok_metagga                          0.000007          69
 rotate_active_occupied_orbital          0.000000           1
 redis_pw_over_bands                     0.000000           1
 ---------------------------------------------------------------
  summed up times     506.5177259445190     
 
 Accumulative profile
 ====================
 
             routine name                   CPU           calls
 ---------------------------------------------------------------
 total_time                            506.517726           1
 elmin                                 459.730145           1
 eddav                                 324.232711          72
 set_dd_paw                            103.934234          70
 hamiltmu                               69.705379      127557
 raccmu_                                60.555008      127557
 lapack                                 60.413146      127557
 m_sumb_d                               43.076718      392142
 redis_pw                               35.774622      704946
 set_charge                             18.499922          69
 newband                                15.608647      130581
 fft3d_mpi                              14.692520      257641
 fftwav_mpi                             13.744311      506380
 setdij_                                13.284518          96
 fftwav                                 13.063910      506380
 m_alltoall_d                           12.953755     1856946
 redis_proj                             12.566961      893574
 fftbrc_mpi                             11.708350        2527
 fftbas_plan_mpi                        11.706818        2527
 init_acc                               10.727946           1
 fft3d                                   9.723930      761494
 augmentation_charge                     9.137583          70
 densta                                  8.703458          73
 phaser                                  8.414337        3297
 force_and_stress                        7.790195           1
 dfftw_execute                           7.440068        2124
 soft_charge                             7.430547          69
 eccp                                    6.971974       66528
 orth1                                   5.024575      382797
 kinhamil                                4.112278      255114
 racc0mu_acc                             3.777684      127557
 acc_init_cublas                         3.718124           1
 overl                                   3.664340      443742
 w1_copy                                 3.642493      765342
 rpromu_acc                              3.356400       97569
 m_bcast_z                               3.088387      131253
 fftext_mpi                              2.950949      255114
 w1_projall                              2.854250       94293
 setup_precond                           2.432819       66528
 m_bcast_d                               2.067732      255259
 map_backward                            2.066008        2654
 map_forward                             2.053544        2400
 overl_mu                                2.021875      127557
 strnlr                                  1.812719           1
 m_alltoallv_z                           1.709082        2825
 pw_charge                               1.682648       47896
 rpro_isp                                1.659668         273
 ggemm                                   1.631674      160821
 map_scatter                             1.298822        2825
 vhamil                                  1.141528      255114
 acc_init_cusolver                       1.087174           1
 map_gather                              1.077780        2825
 depsum                                  1.046642          69
 apply_precond                           1.023925      188586
 potlok                                  0.854676          70
 fordep                                  0.826286           1
 fornlr                                  0.604058           1
 brmix                                   0.598659          68
 broyd                                   0.353624          68
 orthch                                  0.327472           1
 acc_cufft_makeplans                     0.278422           3
 acc_cufft_makeplan                      0.278409          19
 fft_gq                                  0.190154          69
 proall                                  0.180611           1
 rspher_all                              0.154408          14
 sphpro_fast                             0.122514           2
 lincom                                  0.109136        3066
 setg0                                   0.091355          70
 brget                                   0.082228       10956
 truncate_high_frequency_w1              0.025949      321642
 brsav                                   0.021536        2891
 choleski                                0.012884          42
 stufak                                  0.010161           1
 pothar                                  0.008256          71
 inisym                                  0.004382           1
 forhar                                  0.002861           2
 brpre                                   0.002673         136
 strelo                                  0.002616           1
 strehar                                 0.001939           1
 forloc                                  0.001931           1
 strkin                                  0.001292           1
 fewald                                  0.001182           1
 chggra                                  0.000867           1
 set_dd_magatom                          0.000321          70
 rsp                                     0.000305           1
 vectorpot                               0.000294          69
 brgrid                                  0.000253           1
 rcp                                     0.000029           1
 crpa_reader                             0.000026           1
 posmap                                  0.000017           2
 potlok_metagga                          0.000007          69
 rotate_active_occupied_orbital          0.000000           1
 redis_pw_over_bands                     0.000000           1
 ---------------------------------------------------------------
 
Profiling took   1.668537  0.785812  0.003316  0.003213 seconds
Profiling took   1.068137 seconds
