 vasp.6.3.2 27Jun22 (build Jul  3 2023 11:46:21) complex                         
 executed on    LinuxNV_CrayMPICH date 2024.04.20  22:56:02
 running on    4 total cores
 distrk:  each k-point on    4 cores,    1 groups
 distr:  one band on NCORE=   1 cores,    4 groups


--------------------------------------------------------------------------------------------------------


 INCAR:
   ADDGRID = True
   ALGO = Normal
   EDIFF = 0.0014
   ENCUT = 520.0
   IBRION = -1
   ICHARG = 0
   ISIF = 3
   ISMEAR = -5
   ISPIN = 2
   KPOINT_BSE = -1 0 0 0
   LAECHG = True
   LASPH = True
   LCHARG = True
   LELF = True
   LORBIT = 11
   LREAL = Auto
   LVHAR = True
   LWAVE = False
   MAGMOM = 6*0.6 2*7.0 20*0.6
   NELM = 1000
   NSW = 0
   PREC = accurate
   SIGMA = 0.05

 POTCAR:    PAW_PBE K_sv 06Sep2000                
 POTCAR:    PAW_PBE Eu 23Dec2003                  
 POTCAR:    PAW_PBE P 06Sep2000                   
 POTCAR:    PAW_PBE O 08Apr2002                   
 POTCAR:    PAW_PBE K_sv 06Sep2000                
   SHA256 =  bf8373ef592e31d27efa2dcc68371be6d6a25ce4db6c2ffaf9e92c44050ba21a K_sv/POTCAR           
   COPYR  = (c) Copyright 06Sep2000 Georg Kresse                                                    
   COPYR  = This file is part of the software VASP. Any use, copying, and all other rights are regul
   COPYR  = If you do not have a valid VASP license, you may not use, copy or distribute this file. 
   VRHFIN =K:  3s3p4s                                                                               
   LEXCH  = PE                                                                                      
   EATOM  =   775.0067 eV,   56.9614 Ry                                                             
                                                                                                    
   TITEL  = PAW_PBE K_sv 06Sep2000                                                                  
   LULTRA =        F    use ultrasoft PP ?                                                          
   IUNSCR =        1    unscreen: 0-lin 1-nonlin 2-no                                               
   RPACOR =    2.200    partial core radius                                                         
   POMASS =   39.098; ZVAL   =    9.000    mass and valenz                                          
   RCORE  =    2.300    outmost cutoff radius                                                       
   RWIGS  =    3.000; RWIGS  =    1.588    wigner-seitz radius (au A)                               
   ENMAX  =  259.264; ENMIN  =  194.448 eV                                                          
   RCLOC  =    2.005    cutoff for local pot                                                        
   LCOR   =        T    correct aug charges                                                         
   LPAW   =        T    paw PP                                                                      
   EAUG   =  427.853                                                                                
   DEXC   =    0.000                                                                                
   RMAX   =    2.358    core radius for proj-oper                                                   
   RAUG   =    1.300    factor for augmentation sphere                                              
   RDEP   =    2.372    radius for radial grids                                                     
   RDEPT  =    2.002    core radius for aug-charge                                                  
                                                                                                    
   Atomic configuration                                                                             
    7 entries                                                                                       
     n  l   j            E        occ.                                                              
     1  0  0.50     -3522.0595   2.0000                                                             
     2  0  0.50      -353.3851   2.0000                                                             
     2  1  1.50      -280.0935   6.0000                                                             
     3  0  0.50       -35.3419   2.0000                                                             
     4  0  0.50        -2.3190   1.0000                                                             
     3  1  1.50       -18.8125   6.0000                                                             
     3  2  1.50        -1.3606   0.0000                                                             
   Description                                                                                      
     l       E           TYP  RCUT    TYP  RCUT                                                     
     0    -35.3418873     23  2.300                                                                 
     0     -2.3190215     23  2.300                                                                 
     1    -18.8124623     23  2.300                                                                 
     1    -20.4087390     23  2.300                                                                 
     2     -1.3605826     23  2.300                                                                 
  local pseudopotential read in
  partial core-charges read in
  partial kinetic energy density read in
  atomic valenz-charges read in
  non local Contribution for L=            0  read in
    real space projection operators read in
  non local Contribution for L=            0  read in
    real space projection operators read in
  non local Contribution for L=            1  read in
    real space projection operators read in
  non local Contribution for L=            1  read in
    real space projection operators read in
  non local Contribution for L=            2  read in
    real space projection operators read in
    PAW grid and wavefunctions read in
 
   number of l-projection  operators is LMAX  =            5
   number of lm-projection operators is LMMAX =           13
 
 POTCAR:    PAW_PBE Eu 23Dec2003                  
   SHA256 =  ed303d27e7c5191953f9b15539336e6f36d9037c1d2e92e80c13d733697cb93d Eu/POTCAR             
   COPYR  = (c) Copyright 23Dec2003 Georg Kresse                                                    
   COPYR  = This file is part of the software VASP. Any use, copying, and all other rights are regul
   COPYR  = If you do not have a valid VASP license, you may not use, copy or distribute this file. 
   VRHFIN =Eu : [core=Kr4d]                                                                         
   LEXCH  = PE                                                                                      
   EATOM  =  2619.8085 eV,  192.5505 Ry                                                             
                                                                                                    
   TITEL  = PAW_PBE Eu 23Dec2003                                                                    
   LULTRA =        F    use ultrasoft PP ?                                                          
   IUNSCR =        1    unscreen: 0-lin 1-nonlin 2-no                                               
   RPACOR =    2.300    partial core radius                                                         
   POMASS =  151.965; ZVAL   =   17.000    mass and valenz                                          
   RCORE  =    2.800    outmost cutoff radius                                                       
   RWIGS  =    2.800; RWIGS  =    1.482    wigner-seitz radius (au A)                               
   ENMAX  =  249.668; ENMIN  =  187.251 eV                                                          
   RCLOC  =    2.308    cutoff for local pot                                                        
   LCOR   =        T    correct aug charges                                                         
   LPAW   =        T    paw PP                                                                      
   EAUG   =  549.628                                                                                
   DEXC   =    0.000                                                                                
   RMAX   =    2.870    core radius for proj-oper                                                   
   RAUG   =    1.300    factor for augmentation sphere                                              
   RDEP   =    2.887    radius for radial grids                                                     
   RDEPT  =    2.221    core radius for aug-charge                                                  
                                                                                                    
   Atomic configuration                                                                             
   14 entries                                                                                       
     n  l   j            E        occ.                                                              
     1  0  0.50    -48354.7667   2.0000                                                             
     2  0  0.50     -7939.6472   2.0000                                                             
     2  1  1.50     -7072.6637   6.0000                                                             
     3  0  0.50     -1747.1875   2.0000                                                             
     3  1  1.50     -1477.5221   6.0000                                                             
     3  2  2.50     -1117.4686  10.0000                                                             
     4  0  0.50      -346.8682   2.0000                                                             
     4  1  1.50      -258.1962   6.0000                                                             
     4  2  2.50      -134.7724  10.0000                                                             
     5  0  0.50       -44.6510   2.0000                                                             
     6  0  0.50        -3.6227   2.0000                                                             
     5  1  1.50       -23.7639   6.0000                                                             
     5  2  2.50        -1.3130   0.0000                                                             
     4  3  2.50        -2.7310   7.0000                                                             
   Description                                                                                      
     l       E           TYP  RCUT    TYP  RCUT                                                     
     0    -44.6510453     23  2.400                                                                 
     0     -3.6226685     23  2.400                                                                 
     1    -23.7638687     23  2.400                                                                 
     1     27.2116520     23  2.400                                                                 
     2     -1.3129622     23  2.500                                                                 
     2     13.6058260     23  2.500                                                                 
     3     -2.7309948     23  2.800                                                                 
     3     -3.4014565     23  2.800                                                                 
  local pseudopotential read in
  partial core-charges read in
  partial kinetic energy density read in
  atomic valenz-charges read in
  non local Contribution for L=            0  read in
    real space projection operators read in
  non local Contribution for L=            0  read in
    real space projection operators read in
  non local Contribution for L=            1  read in
    real space projection operators read in
  non local Contribution for L=            1  read in
    real space projection operators read in
  non local Contribution for L=            2  read in
    real space projection operators read in
  non local Contribution for L=            2  read in
    real space projection operators read in
  non local Contribution for L=            3  read in
    real space projection operators read in
  non local Contribution for L=            3  read in
    real space projection operators read in
    PAW grid and wavefunctions read in
 
   number of l-projection  operators is LMAX  =            8
   number of lm-projection operators is LMMAX =           32
 
 POTCAR:    PAW_PBE P 06Sep2000                   
   SHA256 =  df60c54a93efe35c9e85ae94c010c75e9f6960a95d5595d7cdba4096d109af88 P/POTCAR              
   COPYR  = (c) Copyright 06Sep2000 Georg Kresse                                                    
   COPYR  = This file is part of the software VASP. Any use, copying, and all other rights are regul
   COPYR  = If you do not have a valid VASP license, you may not use, copy or distribute this file. 
   VRHFIN =P : s2p3                                                                                 
   LEXCH  = PE                                                                                      
   EATOM  =   176.0430 eV,   12.9388 Ry                                                             
                                                                                                    
   TITEL  = PAW_PBE P 06Sep2000                                                                     
   LULTRA =        F    use ultrasoft PP ?                                                          
   IUNSCR =        1    unscreen: 0-lin 1-nonlin 2-no                                               
   RPACOR =    1.500    partial core radius                                                         
   POMASS =   30.974; ZVAL   =    5.000    mass and valenz                                          
   RCORE  =    1.900    outmost cutoff radius                                                       
   RWIGS  =    2.330; RWIGS  =    1.233    wigner-seitz radius (au A)                               
   ENMAX  =  255.040; ENMIN  =  191.280 eV                                                          
   ICORE  =        2    local potential                                                             
   LCOR   =        T    correct aug charges                                                         
   LPAW   =        T    paw PP                                                                      
   EAUG   =  342.924                                                                                
   DEXC   =    0.000                                                                                
   RMAX   =    1.935    core radius for proj-oper                                                   
   RAUG   =    1.300    factor for augmentation sphere                                              
   RDEP   =    1.931    radius for radial grids                                                     
   RDEPT  =    1.794    core radius for aug-charge                                                  
                                                                                                    
   Atomic configuration                                                                             
    6 entries                                                                                       
     n  l   j            E        occ.                                                              
     1  0  0.50     -2084.0982   2.0000                                                             
     2  0  0.50      -173.9859   2.0000                                                             
     2  1  1.50      -124.4865   6.0000                                                             
     3  0  0.50       -13.9692   2.0000                                                             
     3  1  0.50        -5.5067   3.0000                                                             
     3  2  1.50        -5.4423   0.0000                                                             
   Description                                                                                      
     l       E           TYP  RCUT    TYP  RCUT                                                     
     0    -13.9691527     23  1.900                                                                 
     0    -11.7794650     23  1.900                                                                 
     1     -5.5066937     23  1.900                                                                 
     1     -0.2556953     23  1.900                                                                 
     2     -5.4423304     23  1.900                                                                 
  local pseudopotential read in
  partial core-charges read in
  partial kinetic energy density read in
  atomic valenz-charges read in
  non local Contribution for L=            0  read in
    real space projection operators read in
  non local Contribution for L=            0  read in
    real space projection operators read in
  non local Contribution for L=            1  read in
    real space projection operators read in
  non local Contribution for L=            1  read in
    real space projection operators read in
    PAW grid and wavefunctions read in
 
   number of l-projection  operators is LMAX  =            4
   number of lm-projection operators is LMMAX =            8
 
 POTCAR:    PAW_PBE O 08Apr2002                   
   SHA256 =  818f92134a0a090dccd8ba1447fa70422a3b330e708bb4f08108d8ae51209ddf O/POTCAR              
   COPYR  = (c) Copyright 08Apr2002 Georg Kresse                                                    
   COPYR  = This file is part of the software VASP. Any use, copying, and all other rights are regul
   COPYR  = If you do not have a valid VASP license, you may not use, copy or distribute this file. 
   VRHFIN =O: s2p4                                                                                  
   LEXCH  = PE                                                                                      
   EATOM  =   432.3788 eV,   31.7789 Ry                                                             
                                                                                                    
   TITEL  = PAW_PBE O 08Apr2002                                                                     
   LULTRA =        F    use ultrasoft PP ?                                                          
   IUNSCR =        1    unscreen: 0-lin 1-nonlin 2-no                                               
   RPACOR =    1.200    partial core radius                                                         
   POMASS =   16.000; ZVAL   =    6.000    mass and valenz                                          
   RCORE  =    1.520    outmost cutoff radius                                                       
   RWIGS  =    1.550; RWIGS  =    0.820    wigner-seitz radius (au A)                               
   ENMAX  =  400.000; ENMIN  =  300.000 eV                                                          
   ICORE  =        2    local potential                                                             
   LCOR   =        T    correct aug charges                                                         
   LPAW   =        T    paw PP                                                                      
   EAUG   =  605.392                                                                                
   DEXC   =    0.000                                                                                
   RMAX   =    1.553    core radius for proj-oper                                                   
   RAUG   =    1.300    factor for augmentation sphere                                              
   RDEP   =    1.550    radius for radial grids                                                     
   RDEPT  =    1.329    core radius for aug-charge                                                  
                                                                                                    
   Atomic configuration                                                                             
    4 entries                                                                                       
     n  l   j            E        occ.                                                              
     1  0  0.50      -514.6923   2.0000                                                             
     2  0  0.50       -23.9615   2.0000                                                             
     2  1  0.50        -9.0305   4.0000                                                             
     3  2  1.50        -9.5241   0.0000                                                             
   Description                                                                                      
     l       E           TYP  RCUT    TYP  RCUT                                                     
     0    -23.9615318     23  1.200                                                                 
     0     -9.5240782     23  1.200                                                                 
     1     -9.0304911     23  1.520                                                                 
     1      8.1634956     23  1.520                                                                 
     2     -9.5240782      7  1.500                                                                 
  local pseudopotential read in
  partial core-charges read in
  partial kinetic energy density read in
  kinetic energy density of atom read in
  atomic valenz-charges read in
  non local Contribution for L=            0  read in
    real space projection operators read in
  non local Contribution for L=            0  read in
    real space projection operators read in
  non local Contribution for L=            1  read in
    real space projection operators read in
  non local Contribution for L=            1  read in
    real space projection operators read in
    PAW grid and wavefunctions read in
 
   number of l-projection  operators is LMAX  =            4
   number of lm-projection operators is LMMAX =            8
 
 Optimization of the real space projectors (new method)

 maximal supplied QI-value         = 16.25
 optimisation between [QCUT,QGAM] = [ 11.54, 23.24] = [ 37.28,151.24] Ry 
 Optimized for a Real-space Cutoff    1.32 Angstroem

   l    n(q)    QCUT    max X(q) W(low)/X(q) W(high)/X(q)  e(spline) 
   0      9    11.539    11.234    0.52E-04    0.40E-04    0.14E-07
   0      9    11.539    12.505    0.97E-04    0.77E-04    0.27E-07
   1      9    11.539   167.359    0.18E-03    0.11E-02    0.48E-06
   1      9    11.539   168.875    0.18E-03    0.11E-02    0.48E-06
   2      8    11.539     3.435    0.16E-03    0.11E-03    0.38E-07
 Optimization of the real space projectors (new method)

 maximal supplied QI-value         = 13.42
 optimisation between [QCUT,QGAM] = [ 11.67, 23.35] = [ 38.16,152.62] Ry 
 Optimized for a Real-space Cutoff    1.63 Angstroem

   l    n(q)    QCUT    max X(q) W(low)/X(q) W(high)/X(q)  e(spline) 
   0     11    11.673    10.400    0.14E-04    0.18E-05    0.24E-07
   0     11    11.673    10.768    0.21E-04    0.32E-05    0.49E-07
   1     11    11.673     4.094    0.40E-05    0.13E-04    0.93E-07
   1     11    11.673     4.009    0.11E-04    0.46E-04    0.33E-06
   2     10    11.673    29.030    0.79E-04    0.60E-04    0.70E-06
   2     10    11.673    19.941    0.80E-04    0.60E-04    0.71E-06
   3     10    11.673    88.889    0.23E-03    0.29E-03    0.30E-06
   3     10    11.673    76.102    0.23E-03    0.30E-03    0.30E-06
 Optimization of the real space projectors (new method)

 maximal supplied QI-value         = 19.84
 optimisation between [QCUT,QGAM] = [ 11.51, 23.22] = [ 37.09,150.92] Ry 
 Optimized for a Real-space Cutoff    1.21 Angstroem

   l    n(q)    QCUT    max X(q) W(low)/X(q) W(high)/X(q)  e(spline) 
   0      8    11.508   160.924    0.96E-04    0.17E-03    0.52E-07
   0      8    11.508   130.086    0.95E-04    0.17E-03    0.51E-07
   1      8    11.508    74.434    0.16E-03    0.74E-04    0.91E-07
   1      8    11.508    49.120    0.16E-03    0.71E-04    0.89E-07
 Optimization of the real space projectors (new method)

 maximal supplied QI-value         = 24.76
 optimisation between [QCUT,QGAM] = [ 11.64, 23.27] = [ 37.91,151.63] Ry 
 Optimized for a Real-space Cutoff    1.14 Angstroem

   l    n(q)    QCUT    max X(q) W(low)/X(q) W(high)/X(q)  e(spline) 
   0      8    11.635    20.381    0.10E-03    0.33E-03    0.24E-06
   0      8    11.635    15.268    0.11E-03    0.35E-03    0.26E-06
   1      7    11.635     5.964    0.24E-03    0.31E-03    0.30E-06
   1      7    11.635     5.382    0.22E-03    0.25E-03    0.26E-06
  PAW_PBE K_sv 06Sep2000                :
 energy of atom  1       EATOM= -775.0067
 kinetic energy error for atom=    0.0014 (will be added to EATOM!!)
  PAW_PBE Eu 23Dec2003                  :
 energy of atom  2       EATOM=-2619.8085
 kinetic energy error for atom=    0.0015 (will be added to EATOM!!)
  PAW_PBE P 06Sep2000                   :
 energy of atom  3       EATOM= -176.0430
 kinetic energy error for atom=    0.0011 (will be added to EATOM!!)
  PAW_PBE O 08Apr2002                   :
 energy of atom  4       EATOM= -432.3788
 kinetic energy error for atom=    0.0208 (will be added to EATOM!!)
 
 
 POSCAR: K6 Eu2 P4 O16
  positions in direct lattice
  No initial velocities read in
 exchange correlation table for  LEXCH =        8
   RHO(1)=    0.500       N(1)  =     2000
   RHO(2)=  100.500       N(2)  =     4000

 VTST: version 4.2, (08/11/21)

 CHAIN: initializing optimizer
 
 OPT: Using VASP Dynamics algorithm
 CHAIN: Read ICHAIN             0
 
 POSCAR: K6 Eu2 P4 O16
  positions in direct lattice
  No initial velocities read in
 


--------------------------------------------------------------------------------------------------------


 ion  position               nearest neighbor table
   1  0.250  0.358  0.911-  19 2.64  11 3.29   4 3.71   4 3.71
   2  0.250  0.507  0.308-  23 2.71  21 2.73  11 3.37   5 3.52   6 3.71   6 3.71
   3  0.750  0.200  0.415-  18 2.75  26 2.83  27 2.83  15 2.86  14 2.86  23 2.88  23 2.88  12 3.28
                             9 3.32  11 3.34  11 3.34   4 3.52
   4  0.750  0.493  0.692-  28 2.71  22 2.73  12 3.37   3 3.52   1 3.71   1 3.71
   5  0.250  0.800  0.585-  17 2.75  24 2.83  25 2.83  16 2.86  13 2.86  28 2.88  28 2.88  11 3.28
                            10 3.32  12 3.34  12 3.34   2 3.52
   6  0.750  0.642  0.089-  20 2.64  12 3.29   2 3.71   2 3.71
   7  0.750  0.994  0.790-  14 2.36  15 2.36  24 2.46  25 2.46  20 2.48  28 2.56  22 2.59   9 3.14

   8  0.250  0.006  0.210-  13 2.36  16 2.36  26 2.46  27 2.46  19 2.48  23 2.56  21 2.59  10 3.14

   9  0.750  0.191  0.072-  20 1.55  26 1.56  27 1.56  22 1.56   7 3.14   3 3.32
  10  0.250  0.809  0.928-  19 1.55  24 1.56  25 1.56  21 1.56   8 3.14   5 3.32
  11  0.250  0.235  0.588-  17 1.54  23 1.56  14 1.56  15 1.56   5 3.28   1 3.29   3 3.34   3 3.34
                             2 3.37
  12  0.750  0.765  0.412-  18 1.54  28 1.56  13 1.56  16 1.56   3 3.28   6 3.29   5 3.34   5 3.34
                             4 3.37
  13  0.972  0.846  0.342-  12 1.56   8 2.36   5 2.86
  14  0.472  0.154  0.658-  11 1.56   7 2.36   3 2.86
  15  0.028  0.154  0.658-  11 1.56   7 2.36   3 2.86
  16  0.528  0.846  0.342-  12 1.56   8 2.36   5 2.86
  17  0.250  0.437  0.604-  11 1.54   5 2.75
  18  0.750  0.563  0.396-  12 1.54   3 2.75
  19  0.250  0.011  0.953-  10 1.55   8 2.48   1 2.64
  20  0.750  0.989  0.047-   9 1.55   7 2.48   6 2.64
  21  0.250  0.715  0.073-  10 1.56   8 2.59   2 2.73
  22  0.750  0.285  0.927-   9 1.56   7 2.59   4 2.73
  23  0.250  0.183  0.433-  11 1.56   8 2.56   2 2.71   3 2.88   3 2.88
  24  0.029  0.755  0.845-  10 1.56   7 2.46   5 2.83
  25  0.471  0.755  0.845-  10 1.56   7 2.46   5 2.83
  26  0.971  0.245  0.155-   9 1.56   8 2.46   3 2.83
  27  0.529  0.245  0.155-   9 1.56   8 2.46   3 2.83
  28  0.750  0.817  0.567-  12 1.56   7 2.56   4 2.71   5 2.88   5 2.88
 
  LATTYP: Found a simple monoclinic cell.
 ALAT       =     7.5576620000
 B/A-ratio  =     0.7606389383
 C/A-ratio  =     1.2813597576
 COS(beta)  =    -0.0214059483
  
  Lattice vectors:
  
 A1 = (   0.0000000000,   7.5576620000,   0.0000000000)
 A2 = (   5.7486520000,   0.0000000000,   0.0000000000)
 A3 = (   0.0000000000,  -0.2072970000,  -9.6818650000)


Analysis of symmetry for initial positions (statically):
=====================================================================
 Subroutine PRICEL returns:
 Original cell was already a primitive cell.
 

 Routine SETGRP: Setting up the symmetry group for a 
 simple monoclinic supercell.


 Subroutine GETGRP returns: Found  4 space group operations
 (whereof  2 operations were pure point group operations)
 out of a pool of  4 trial point group operations.


The static configuration has the point symmetry S_2 .
 The point group associated with its full space group is C_2h.


Analysis of symmetry for dynamics (positions and initial velocities):
=====================================================================
 Subroutine PRICEL returns:
 Original cell was already a primitive cell.
 

 Routine SETGRP: Setting up the symmetry group for a 
 simple monoclinic supercell.


 Subroutine GETGRP returns: Found  4 space group operations
 (whereof  2 operations were pure point group operations)
 out of a pool of  4 trial point group operations.


The dynamic configuration has the point symmetry S_2 .
 The point group associated with its full space group is C_2h.


Analysis of structural, dynamic, and magnetic symmetry:
=====================================================================
 Subroutine PRICEL returns:
 Original cell was already a primitive cell.
 

 Routine SETGRP: Setting up the symmetry group for a 
 simple monoclinic supercell.


 Subroutine GETGRP returns: Found  4 space group operations
 (whereof  2 operations were pure point group operations)
 out of a pool of  4 trial point group operations.


The overall configuration has the point symmetry S_2 .
 The point group associated with its full space group is C_2h.


 Subroutine INISYM returns: Found  4 space group operations
 (whereof  2 operations are pure point group operations),
 and found     1 'primitive' translations


----------------------------------------------------------------------------------------

                                     Primitive cell                                     

  volume of cell :     420.6419

  direct lattice vectors                    reciprocal lattice vectors
     5.748652000  0.000000000  0.000000000     0.173953824  0.000000000  0.000000000
     0.000000000  7.557662000  0.000000000     0.000000000  0.132316052 -0.002833000
     0.000000000  0.207297000  9.681865000     0.000000000  0.000000000  0.103285886

  length of vectors
     5.748652000  7.557662000  9.684083949     0.173953824  0.132346377  0.103285886

  position of ions in fractional coordinates (direct lattice)
     0.250000000  0.357500000  0.911399000
     0.250000000  0.506587000  0.307794000
     0.750000000  0.199897000  0.414907000
     0.750000000  0.493413000  0.692206000
     0.250000000  0.800103000  0.585093000
     0.750000000  0.642500000  0.088601000
     0.750000000  0.994058000  0.790072000
     0.250000000  0.005942000  0.209928000
     0.750000000  0.191425000  0.071855000
     0.250000000  0.808575000  0.928145000
     0.250000000  0.234638000  0.588035000
     0.750000000  0.765362000  0.411965000
     0.972123000  0.846137000  0.341953000
     0.472123000  0.153863000  0.658047000
     0.027877000  0.153863000  0.658047000
     0.527877000  0.846137000  0.341953000
     0.250000000  0.437112000  0.603907000
     0.750000000  0.562888000  0.396093000
     0.250000000  0.010575000  0.953449000
     0.750000000  0.989425000  0.046551000
     0.250000000  0.714534000  0.073418000
     0.750000000  0.285466000  0.926582000
     0.250000000  0.182574000  0.433000000
     0.029149000  0.755301000  0.845126000
     0.470851000  0.755301000  0.845126000
     0.970851000  0.244699000  0.154874000
     0.529149000  0.244699000  0.154874000
     0.750000000  0.817426000  0.567000000

  ion indices of the primitive-cell ions
   primitive index   ion index
                 1           1
                 2           2
                 3           3
                 4           4
                 5           5
                 6           6
                 7           7
                 8           8
                 9           9
                10          10
                11          11
                12          12
                13          13
                14          14
                15          15
                16          16
                17          17
                18          18
                19          19
                20          20
                21          21
                22          22
                23          23
                24          24
                25          25
                26          26
                27          27
                28          28

----------------------------------------------------------------------------------------

 
 
 KPOINTS: Kpoints from vasprun.xml                

Automatic generation of k-mesh.
 Grid dimensions read from file:
 generate k-points for:    5    3    3

 Generating k-lattice:

  Cartesian coordinates                     Fractional coordinates (reciprocal lattice)
     0.034790765  0.000000000  0.000000000     0.200000000  0.000000000  0.000000000
     0.000000000  0.044105351 -0.000944333     0.000000000  0.333333333 -0.000000000
     0.000000000  0.000000000  0.034428629     0.000000000  0.000000000  0.333333333

  Length of vectors
     0.034790765  0.044115459  0.034428629

  Shift w.r.t. Gamma in fractional coordinates (k-lattice)
     0.000000000  0.000000000  0.000000000

 TETIRR: Found    126 inequivalent tetrahedra from      270
 
 Subroutine IBZKPT returns following result:
 ===========================================
 
 Found     15 irreducible k-points:
 
 Following reciprocal coordinates:
            Coordinates               Weight
  0.000000  0.000000  0.000000      1.000000
  0.200000  0.000000  0.000000      2.000000
  0.400000  0.000000  0.000000      2.000000
  0.000000  0.333333  0.000000      2.000000
  0.200000  0.333333  0.000000      4.000000
  0.400000  0.333333  0.000000      4.000000
  0.000000  0.000000  0.333333      2.000000
  0.200000  0.000000  0.333333      4.000000
  0.400000  0.000000  0.333333      4.000000
  0.000000  0.333333  0.333333      2.000000
  0.200000  0.333333  0.333333      4.000000
  0.400000  0.333333  0.333333      4.000000
  0.000000 -0.333333  0.333333      2.000000
  0.200000 -0.333333  0.333333      4.000000
  0.400000 -0.333333  0.333333      4.000000
 
 Following cartesian coordinates:
            Coordinates               Weight
  0.000000  0.000000  0.000000      1.000000
  0.034791  0.000000  0.000000      2.000000
  0.069582  0.000000  0.000000      2.000000
  0.000000  0.044105 -0.000944      2.000000
  0.034791  0.044105 -0.000944      4.000000
  0.069582  0.044105 -0.000944      4.000000
  0.000000  0.000000  0.034429      2.000000
  0.034791  0.000000  0.034429      4.000000
  0.069582  0.000000  0.034429      4.000000
  0.000000  0.044105  0.033484      2.000000
  0.034791  0.044105  0.033484      4.000000
  0.069582  0.044105  0.033484      4.000000
  0.000000 -0.044105  0.035373      2.000000
  0.034791 -0.044105  0.035373      4.000000
  0.069582 -0.044105  0.035373      4.000000
 


--------------------------------------------------------------------------------------------------------




 Dimension of arrays:
   k-points           NKPTS =     15   k-points in BZ     NKDIM =     15   number of bands    NBANDS=    140
   number of dos      NEDOS =    301   number of ions     NIONS =     28
   non local maximal  LDIM  =      8   non local SUM 2l+1 LMDIM =     32
   total plane-waves  NPLWV = 193536
   max r-space proj   IRMAX =   8353   max aug-charges    IRDMAX= 210598
   dimension x,y,z NGX =    48 NGY =   56 NGZ =   72
   dimension x,y,z NGXF=    96 NGYF=  112 NGZF=  144
   support grid    NGXF=   192 NGYF=  224 NGZF=  288
   ions per type =               6   2   4  16
   NGX,Y,Z   is equivalent  to a cutoff of  13.88, 12.32, 12.36 a.u.
   NGXF,Y,Z  is equivalent  to a cutoff of  27.76, 24.64, 24.72 a.u.

 SYSTEM =  unknown system                          
 POSCAR =  K6 Eu2 P4 O16                           

 Startparameter for this run:
   NWRITE =      2    write-flag & timer
   PREC   = accura    normal or accurate (medium, high low for compatibility)
   ISTART =      0    job   : 0-new  1-cont  2-samecut
   ICHARG =      0    charge: 1-file 2-atom 10-const
   ISPIN  =      2    spin polarized calculation?
   LNONCOLLINEAR =      F non collinear calculations
   LSORBIT =      F    spin-orbit coupling
   INIWAV =      1    electr: 0-lowe 1-rand  2-diag
   LASPH  =      T    aspherical Exc in radial PAW
 Electronic Relaxation 1
   ENCUT  =  520.0 eV  38.22 Ry    6.18 a.u.  10.69 14.05 18.01*2*pi/ulx,y,z
   ENINI  =  520.0     initial cutoff
   ENAUG  =  605.4 eV  augmentation charge cutoff
   NELM   =   1000;   NELMIN=  2; NELMDL= -5     # of ELM steps 
   EDIFF  = 0.1E-02   stopping-criterion for ELM
   LREAL  =      T    real-space projection
   NLSPLINE    = F    spline interpolate recip. space projectors
   LCOMPAT=      F    compatible to vasp.4.4
   GGA_COMPAT  = T    GGA compatible to vasp.4.4-vasp.4.6
   LMAXPAW     = -100 max onsite density
   LMAXMIX     =    2 max onsite mixed and CHGCAR
   VOSKOWN=      0    Vosko Wilk Nusair interpolation
   ROPT   =   -0.00025  -0.00025  -0.00025  -0.00025
 Ionic relaxation
   EDIFFG = 0.1E-01   stopping-criterion for IOM
   NSW    =      0    number of steps for IOM
   NBLOCK =      1;   KBLOCK =      1    inner block; outer block 
   IBRION =     -1    ionic relax: 0-MD 1-quasi-New 2-CG
   NFREE  =      0    steps in history (QN), initial steepest desc. (CG)
   ISIF   =      3    stress and relaxation
   IWAVPR =     10    prediction:  0-non 1-charg 2-wave 3-comb
   ISYM   =      2    0-nonsym 1-usesym 2-fastsym
   LCORR  =      T    Harris-Foulkes like correction to forces

   POTIM  = 0.5000    time-step for ionic-motion
   TEIN   =    0.0    initial temperature
   TEBEG  =    0.0;   TEEND  =   0.0 temperature during run
   SMASS  =  -3.00    Nose mass-parameter (am)
   estimated Nose-frequenzy (Omega)   =  0.10E-29 period in steps = 0.13E+47 mass=  -0.755E-27a.u.
   SCALEE = 1.0000    scale energy and forces
   NPACO  =    256;   APACO  = 10.0  distance and # of slots for P.C.
   PSTRESS=    0.0 pullay stress

  Mass of Ions in am
   POMASS =  39.10151.97 30.97 16.00
  Ionic Valenz
   ZVAL   =   9.00 17.00  5.00  6.00
  Atomic Wigner-Seitz radii
   RWIGS  =  -1.00 -1.00 -1.00 -1.00
  virtual crystal weights 
   VCA    =   1.00  1.00  1.00  1.00
   NELECT =     204.0000    total number of electrons
   NUPDOWN=      -1.0000    fix difference up-down

 DOS related values:
   EMIN   =  10.00;   EMAX   =-10.00  energy-range for DOS
   EFERMI =   0.00
   ISMEAR =    -5;   SIGMA  =   0.05  broadening in eV -4-tet -1-fermi 0-gaus

 Electronic relaxation 2 (details)
   IALGO  =     38    algorithm
   LDIAG  =      T    sub-space diagonalisation (order eigenvalues)
   LSUBROT=      F    optimize rotation matrix (better conditioning)
   TURBO    =      0    0=normal 1=particle mesh
   IRESTART =      0    0=no restart 2=restart with 2 vectors
   NREBOOT  =      0    no. of reboots
   NMIN     =      0    reboot dimension
   EREF     =   0.00    reference energy to select bands
   IMIX   =      4    mixing-type and parameters
     AMIX     =   0.40;   BMIX     =  1.00
     AMIX_MAG =   1.60;   BMIX_MAG =  1.00
     AMIN     =   0.10
     WC   =   100.;   INIMIX=   1;  MIXPRE=   1;  MAXMIX= -45

 Intra band minimization:
   WEIMIN = 0.0000     energy-eigenvalue tresh-hold
   EBREAK =  0.25E-05  absolut break condition
   DEPER  =   0.30     relativ break condition  

   TIME   =   0.40     timestep for ELM

  volume/ion in A,a.u.               =      15.02       101.38
  Fermi-wavevector in a.u.,A,eV,Ry     =   1.286216  2.430597 22.508835  1.654353
  Thomas-Fermi vector in A             =   2.418304
 
 Write flags
   LWAVE        =      F    write WAVECAR
   LDOWNSAMPLE  =      F    k-point downsampling of WAVECAR
   LCHARG       =      T    write CHGCAR
   LVTOT        =      F    write LOCPOT, total local potential
   LVHAR        =      T    write LOCPOT, Hartree potential only
   LELF         =      T    write electronic localiz. function (ELF)
   LORBIT       =     11    0 simple, 1 ext, 2 COOP (PROOUT), +10 PAW based schemes


 Dipole corrections
   LMONO  =      F    monopole corrections only (constant potential shift)
   LDIPOL =      F    correct potential (dipole corrections)
   IDIPOL =      0    1-x, 2-y, 3-z, 4-all directions 
   EPSILON=  1.0000000 bulk dielectric constant

 Exchange correlation treatment:
   GGA     =    --    GGA type
   LEXCH   =     8    internal setting for exchange type
   LIBXC   =     F    Libxc                    
   VOSKOWN =     0    Vosko Wilk Nusair interpolation
   LHFCALC =     F    Hartree Fock is set to
   LHFONE  =     F    Hartree Fock one center treatment
   AEXX    =    0.0000 exact exchange contribution

 Linear response parameters
   LEPSILON=     F    determine dielectric tensor
   LRPA    =     F    only Hartree local field effects (RPA)
   LNABLA  =     F    use nabla operator in PAW spheres
   LVEL    =     F    velocity operator in full k-point grid
   CSHIFT  =0.1000    complex shift for real part using Kramers Kronig
   OMEGAMAX=  -1.0    maximum frequency
   DEG_THRESHOLD= 0.2000000E-02 threshold for treating states as degnerate
   RTIME   =   -0.100 relaxation time in fs
  (WPLASMAI=    0.000 imaginary part of plasma frequency in eV, 0.658/RTIME)
   DFIELD  = 0.0000000 0.0000000 0.0000000 field for delta impulse in time
 
  Optional k-point grid parameters
   LKPOINTS_OPT  =     F    use optional k-point grid
   KPOINTS_OPT_MODE=     1    mode for optional k-point grid
 
 Orbital magnetization related:
   ORBITALMAG=     F  switch on orbital magnetization
   LCHIMAG   =     F  perturbation theory with respect to B field
   DQ        =  0.001000  dq finite difference perturbation B field
   LLRAUG    =     F  two centre corrections for induced B field



--------------------------------------------------------------------------------------------------------


 Static calculation
 charge density and potential will be updated during run
 spin polarized calculation
 Variant of blocked Davidson
 Davidson routine will perform the subspace rotation
 perform sub-space diagonalisation
    after iterative eigenvector-optimisation
 modified Broyden-mixing scheme, WC =      100.0
 initial mixing is a Kerker type mixing with AMIX =  0.4000 and BMIX =      1.0000
 Hartree-type preconditioning will be used
 using additional bands            38
 real space projection scheme for non local part
 use partial core corrections
 calculate Harris-corrections to forces 
   (improved forces if not selfconsistent)
 use gradient corrections 
 use of overlap-Matrix (Vanderbilt PP)
 Fermi weights with tetrahedron method with Bloechl corrections


--------------------------------------------------------------------------------------------------------


  energy-cutoff  :      520.00
  volume of cell :      420.64
      direct lattice vectors                 reciprocal lattice vectors
     5.748652000  0.000000000  0.000000000     0.173953824  0.000000000  0.000000000
     0.000000000  7.557662000  0.000000000     0.000000000  0.132316052 -0.002833000
     0.000000000  0.207297000  9.681865000     0.000000000  0.000000000  0.103285886

  length of vectors
     5.748652000  7.557662000  9.684083949     0.173953824  0.132346377  0.103285886


 
 k-points in units of 2pi/SCALE and weight: Kpoints from vasprun.xml                
   0.00000000  0.00000000  0.00000000       0.022
   0.03479076  0.00000000  0.00000000       0.044
   0.06958153  0.00000000  0.00000000       0.044
   0.00000000  0.04410535 -0.00094433       0.044
   0.03479076  0.04410535 -0.00094433       0.089
   0.06958153  0.04410535 -0.00094433       0.089
   0.00000000  0.00000000  0.03442863       0.044
   0.03479076  0.00000000  0.03442863       0.089
   0.06958153  0.00000000  0.03442863       0.089
   0.00000000  0.04410535  0.03348430       0.044
   0.03479076  0.04410535  0.03348430       0.089
   0.06958153  0.04410535  0.03348430       0.089
   0.00000000 -0.04410535  0.03537296       0.044
   0.03479076 -0.04410535  0.03537296       0.089
   0.06958153 -0.04410535  0.03537296       0.089
 
 k-points in reciprocal lattice and weights: Kpoints from vasprun.xml                
   0.00000000  0.00000000  0.00000000       0.022
   0.20000000  0.00000000  0.00000000       0.044
   0.40000000  0.00000000  0.00000000       0.044
   0.00000000  0.33333333  0.00000000       0.044
   0.20000000  0.33333333  0.00000000       0.089
   0.40000000  0.33333333  0.00000000       0.089
   0.00000000  0.00000000  0.33333333       0.044
   0.20000000  0.00000000  0.33333333       0.089
   0.40000000  0.00000000  0.33333333       0.089
   0.00000000  0.33333333  0.33333333       0.044
   0.20000000  0.33333333  0.33333333       0.089
   0.40000000  0.33333333  0.33333333       0.089
   0.00000000 -0.33333333  0.33333333       0.044
   0.20000000 -0.33333333  0.33333333       0.089
   0.40000000 -0.33333333  0.33333333       0.089
 
 position of ions in fractional coordinates (direct lattice) 
   0.25000000  0.35750000  0.91139900
   0.25000000  0.50658700  0.30779400
   0.75000000  0.19989700  0.41490700
   0.75000000  0.49341300  0.69220600
   0.25000000  0.80010300  0.58509300
   0.75000000  0.64250000  0.08860100
   0.75000000  0.99405800  0.79007200
   0.25000000  0.00594200  0.20992800
   0.75000000  0.19142500  0.07185500
   0.25000000  0.80857500  0.92814500
   0.25000000  0.23463800  0.58803500
   0.75000000  0.76536200  0.41196500
   0.97212300  0.84613700  0.34195300
   0.47212300  0.15386300  0.65804700
   0.02787700  0.15386300  0.65804700
   0.52787700  0.84613700  0.34195300
   0.25000000  0.43711200  0.60390700
   0.75000000  0.56288800  0.39609300
   0.25000000  0.01057500  0.95344900
   0.75000000  0.98942500  0.04655100
   0.25000000  0.71453400  0.07341800
   0.75000000  0.28546600  0.92658200
   0.25000000  0.18257400  0.43300000
   0.02914900  0.75530100  0.84512600
   0.47085100  0.75530100  0.84512600
   0.97085100  0.24469900  0.15487400
   0.52914900  0.24469900  0.15487400
   0.75000000  0.81742600  0.56700000
 
 position of ions in cartesian coordinates  (Angst):
   1.43716300  2.89079444  8.82404208
   1.43716300  3.89241809  2.98001996
   4.31148900  1.59676294  4.01707356
   4.31148900  3.87254091  6.70184504
   1.43716300  6.16819606  5.66479144
   4.31148900  4.87416456  0.85782292
   4.31148900  7.67653393  7.64937044
   1.43716300  0.08842507  2.03249456
   4.31148900  1.46162077  0.69569041
   1.43716300  6.30333823  8.98617459
   1.43716300  1.89521259  5.69327549
   4.31148900  5.86974641  3.98858951
   5.58839683  6.46570328  3.31074278
   2.71407083  1.29925572  6.37112222
   0.16025517  1.29925572  6.37112222
   3.03458117  6.46570328  3.31074278
   1.43716300  3.42873286  5.84694605
   4.31148900  4.33622614  3.83491895
   1.43716300  0.27756939  9.23116450
   4.31148900  7.48738961  0.45070050
   1.43716300  5.41542579  0.71082316
   4.31148900  2.34953321  8.97104184
   1.43716300  1.46959218  4.19224754
   0.16756746  5.88350175  8.18239584
   2.70675854  5.88350175  8.18239584
   5.58108454  1.88145725  1.49946916
   3.04189346  1.88145725  1.49946916
   4.31148900  6.29536682  5.48961746
 


--------------------------------------------------------------------------------------------------------


 k-point   1 :   0.0000 0.0000 0.0000  plane waves:   11289
 k-point   2 :   0.2000 0.0000 0.0000  plane waves:   11321
 k-point   3 :   0.4000 0.0000 0.0000  plane waves:   11292
 k-point   4 :   0.0000 0.3333 0.0000  plane waves:   11329
 k-point   5 :   0.2000 0.3333 0.0000  plane waves:   11340
 k-point   6 :   0.4000 0.3333 0.0000  plane waves:   11322
 k-point   7 :   0.0000 0.0000 0.3333  plane waves:   11329
 k-point   8 :   0.2000 0.0000 0.3333  plane waves:   11324
 k-point   9 :   0.4000 0.0000 0.3333  plane waves:   11326
 k-point  10 :   0.0000 0.3333 0.3333  plane waves:   11327
 k-point  11 :   0.2000 0.3333 0.3333  plane waves:   11333
 k-point  12 :   0.4000 0.3333 0.3333  plane waves:   11331
 k-point  13 :   0.0000-0.3333 0.3333  plane waves:   11333
 k-point  14 :   0.2000-0.3333 0.3333  plane waves:   11330
 k-point  15 :   0.4000-0.3333 0.3333  plane waves:   11312

 maximum and minimum number of plane-waves per node :     11340    11289

 maximum number of plane-waves:     11340
 maximum index in each direction: 
   IXMAX=   10   IYMAX=   14   IZMAX=   18
   IXMIN=  -11   IYMIN=  -14   IZMIN=  -18


 serial   3D FFT for wavefunctions
 parallel 3D FFT for charge:
    minimum data exchange during FFTs selected (reduces bandwidth)


 total amount of memory used by VASP MPI-rank0   354621. kBytes
=======================================================================

   base      :      30000. kBytes
   nonlr-proj:      15537. kBytes
   fftplans  :      57556. kBytes
   grid      :      53157. kBytes
   one-center:       2752. kBytes
   wavefun   :     195619. kBytes
 
     INWAV:  cpu time      0.0002: real time      0.0004
 Broyden mixing: mesh for mixing (old mesh)
   NGX = 21   NGY = 29   NGZ = 37
  (NGX  = 96   NGY  =112   NGZ  =144)
  gives a total of  22533 points

 charge density for first step will be calculated from the start-wavefunctions


--------------------------------------------------------------------------------------------------------


 Maximum index for non-local projection operator          8060
 Maximum index for augmentation-charges         50976 (set IRDMAX)


--------------------------------------------------------------------------------------------------------


 initial charge from wavefunction
 First call to EWALD:  gamma=   0.237
 Maximum number of real-space cells 3x 3x 2
 Maximum number of reciprocal cells 2x 3x 3

    FEWALD:  cpu time      0.0029: real time      0.0029


--------------------------------------- Iteration      1(   1)  ---------------------------------------


    POTLOK:  cpu time      0.1762: real time      0.2266
    SETDIJ:  cpu time      2.6778: real time      2.6792
     EDDAV:  cpu time      6.2810: real time      6.2863
 BZINTS: Fermi energy:   -4.443876;  204.000000 electrons
         Band energy:-0.803470E+04;  BLOECHL correction:   -0.398749
       DOS:  cpu time      0.1594: real time      0.1595
    --------------------------------------------
      LOOP:  cpu time      9.2945: real time      9.3516

 eigenvalue-minimisations  : 15024
 total energy-change (2. order) :-0.1832972E+04  (-0.1444227E+05)
 number of electron     204.0000001 magnetization      -0.0000000
 augmentation part       11.2577474 magnetization       0.0174205

 Free energy of the ion-electron system (eV)
  ---------------------------------------------------
  alpha Z        PSCENC =       910.59899056
  Ewald energy   TEWEN  =    -12244.41870718
  -Hartree energ DENC   =      -374.18345661
  -exchange      EXHF   =         0.00000000
  -V(xc)+E(xc)   XCENC  =       582.44361473
  PAW double counting   =    368913.81381578  -369098.06980716
  entropy T*S    EENTRO =         0.00000000
  eigenvalues    EBANDS =     -8034.69768793
  atomic energy  EATOM  =     17511.54135177
  Solvation  Ediel_sol  =         0.00000000
  ---------------------------------------------------
  free energy    TOTEN  =     -1832.97188605 eV

  energy without entropy =    -1832.97188605  energy(sigma->0) =    -1832.97188605


--------------------------------------------------------------------------------------------------------




--------------------------------------- Iteration      1(   2)  ---------------------------------------


     EDDAV:  cpu time      4.5023: real time      4.5051
 BZINTS: Fermi energy:  -28.595709;  204.000000 electrons
         Band energy:-0.118121E+05;  BLOECHL correction:   -0.379979
       DOS:  cpu time      0.1520: real time      0.1520
    --------------------------------------------
      LOOP:  cpu time      4.6543: real time      4.6572

 eigenvalue-minimisations  : 10192
 total energy-change (2. order) :-0.3777438E+04  (-0.3297016E+04)
 number of electron     204.0000001 magnetization      -0.0000000
 augmentation part       11.2577474 magnetization       0.0174205

 Free energy of the ion-electron system (eV)
  ---------------------------------------------------
  alpha Z        PSCENC =       910.59899056
  Ewald energy   TEWEN  =    -12244.41870718
  -Hartree energ DENC   =      -374.18345661
  -exchange      EXHF   =         0.00000000
  -V(xc)+E(xc)   XCENC  =       582.44361473
  PAW double counting   =    368913.81381578  -369098.06980716
  entropy T*S    EENTRO =         0.00000000
  eigenvalues    EBANDS =    -11812.13536460
  atomic energy  EATOM  =     17511.54135177
  Solvation  Ediel_sol  =         0.00000000
  ---------------------------------------------------
  free energy    TOTEN  =     -5610.40956272 eV

  energy without entropy =    -5610.40956272  energy(sigma->0) =    -5610.40956272


--------------------------------------------------------------------------------------------------------




--------------------------------------- Iteration      1(   3)  ---------------------------------------


     EDDAV:  cpu time      4.7893: real time      4.7921
 BZINTS: Fermi energy:  -34.962870;  204.000000 electrons
         Band energy:-0.127912E+05;  BLOECHL correction:   -0.017637
       DOS:  cpu time      0.1257: real time      0.1257
    --------------------------------------------
      LOOP:  cpu time      4.9150: real time      4.9178

 eigenvalue-minimisations  : 10936
 total energy-change (2. order) :-0.9791087E+03  (-0.9315707E+03)
 number of electron     204.0000001 magnetization      -0.0000000
 augmentation part       11.2577474 magnetization       0.0174205

 Free energy of the ion-electron system (eV)
  ---------------------------------------------------
  alpha Z        PSCENC =       910.59899056
  Ewald energy   TEWEN  =    -12244.41870718
  -Hartree energ DENC   =      -374.18345661
  -exchange      EXHF   =         0.00000000
  -V(xc)+E(xc)   XCENC  =       582.44361473
  PAW double counting   =    368913.81381578  -369098.06980716
  entropy T*S    EENTRO =         0.00000000
  eigenvalues    EBANDS =    -12791.24406502
  atomic energy  EATOM  =     17511.54135177
  Solvation  Ediel_sol  =         0.00000000
  ---------------------------------------------------
  free energy    TOTEN  =     -6589.51826314 eV

  energy without entropy =    -6589.51826314  energy(sigma->0) =    -6589.51826314


--------------------------------------------------------------------------------------------------------




--------------------------------------- Iteration      1(   4)  ---------------------------------------


     EDDAV:  cpu time      5.2965: real time      5.3019
 BZINTS: Fermi energy:  -35.976454;  204.000000 electrons
         Band energy:-0.129244E+05;  BLOECHL correction:    0.000000
       DOS:  cpu time      0.0645: real time      0.0645
    --------------------------------------------
      LOOP:  cpu time      5.3609: real time      5.3664

 eigenvalue-minimisations  : 12200
 total energy-change (2. order) :-0.1331287E+03  (-0.1216601E+03)
 number of electron     204.0000001 magnetization      -0.0000000
 augmentation part       11.2577474 magnetization       0.0174205

 Free energy of the ion-electron system (eV)
  ---------------------------------------------------
  alpha Z        PSCENC =       910.59899056
  Ewald energy   TEWEN  =    -12244.41870718
  -Hartree energ DENC   =      -374.18345661
  -exchange      EXHF   =         0.00000000
  -V(xc)+E(xc)   XCENC  =       582.44361473
  PAW double counting   =    368913.81381578  -369098.06980716
  entropy T*S    EENTRO =         0.00000000
  eigenvalues    EBANDS =    -12924.37272782
  atomic energy  EATOM  =     17511.54135177
  Solvation  Ediel_sol  =         0.00000000
  ---------------------------------------------------
  free energy    TOTEN  =     -6722.64692594 eV

  energy without entropy =    -6722.64692594  energy(sigma->0) =    -6722.64692594


--------------------------------------------------------------------------------------------------------




--------------------------------------- Iteration      1(   5)  ---------------------------------------


     EDDAV:  cpu time      5.8082: real time      5.8129
 BZINTS: Fermi energy:  -36.170242;  204.000000 electrons
         Band energy:-0.129597E+05;  BLOECHL correction:    0.000000
       DOS:  cpu time      0.0674: real time      0.0674
    CHARGE:  cpu time      0.2809: real time      0.2810
    MIXING:  cpu time      0.0055: real time      0.0055
    --------------------------------------------
      LOOP:  cpu time      6.1619: real time      6.1668

 eigenvalue-minimisations  : 13784
 total energy-change (2. order) :-0.3528353E+02  (-0.1492683E+02)
 number of electron     204.0000000 magnetization      -0.0000000
 augmentation part       11.9522430 magnetization       0.0813814

 Broyden mixing:
  rms(total) = 0.94058E+02    rms(broyden)= 0.94053E+02
  rms(prec ) = 0.10389E+03
  weight for this iteration     100.00

 Free energy of the ion-electron system (eV)
  ---------------------------------------------------
  alpha Z        PSCENC =       910.59899056
  Ewald energy   TEWEN  =    -12244.41870718
  -Hartree energ DENC   =      -374.18345661
  -exchange      EXHF   =         0.00000000
  -V(xc)+E(xc)   XCENC  =       582.44361473
  PAW double counting   =    368913.81381578  -369098.06980716
  entropy T*S    EENTRO =         0.00000000
  eigenvalues    EBANDS =    -12959.65625745
  atomic energy  EATOM  =     17511.54135177
  Solvation  Ediel_sol  =         0.00000000
  ---------------------------------------------------
  free energy    TOTEN  =     -6757.93045557 eV

  energy without entropy =    -6757.93045557  energy(sigma->0) =    -6757.93045557


--------------------------------------------------------------------------------------------------------




--------------------------------------- Iteration      1(   6)  ---------------------------------------


    POTLOK:  cpu time      0.0102: real time      0.0111
    SETDIJ:  cpu time      2.6846: real time      2.6873
     EDDAV:  cpu time      5.4539: real time      5.4574
 BZINTS: Fermi energy:   -7.153488;  204.000000 electrons
         Band energy:-0.592017E+04;  BLOECHL correction:   -0.093259
       DOS:  cpu time      0.1400: real time      0.1402
    CHARGE:  cpu time      0.2786: real time      0.2788
    MIXING:  cpu time      0.0052: real time      0.0080
    --------------------------------------------
      LOOP:  cpu time      8.5724: real time      8.5827

 eigenvalue-minimisations  : 12888
 total energy-change (2. order) : 0.3834668E+04  (-0.2636163E+04)
 number of electron     204.0000002 magnetization       0.0474560
 augmentation part       21.0212976 magnetization      -0.1105291

 Broyden mixing:
  rms(total) = 0.13781E+03    rms(broyden)= 0.13780E+03
  rms(prec ) = 0.14038E+03
  weight for this iteration     100.00

 eigenvalues of (default mixing * dielectric matrix)
  average eigenvalue GAMMA=   0.3952
  0.3952

 Free energy of the ion-electron system (eV)
  ---------------------------------------------------
  alpha Z        PSCENC =       910.59899056
  Ewald energy   TEWEN  =    -12244.41870718
  -Hartree energ DENC   =     -3683.04420889
  -exchange      EXHF   =         0.00000000
  -V(xc)+E(xc)   XCENC  =       738.94881159
  PAW double counting   =    214862.58539026  -215099.30770003
  entropy T*S    EENTRO =         0.00000000
  eigenvalues    EBANDS =     -5920.16602050
  atomic energy  EATOM  =     17511.54135177
  Solvation  Ediel_sol  =         0.00000000
  ---------------------------------------------------
  free energy    TOTEN  =     -2923.26209243 eV

  energy without entropy =    -2923.26209243  energy(sigma->0) =    -2923.26209243


--------------------------------------------------------------------------------------------------------




--------------------------------------- Iteration      1(   7)  ---------------------------------------


    POTLOK:  cpu time      0.0105: real time      0.0109
    SETDIJ:  cpu time      2.6682: real time      2.6692
     EDDAV:  cpu time      6.0743: real time      6.0771
 BZINTS: Fermi energy:   -4.540807;  204.000000 electrons
         Band energy:-0.471772E+04;  BLOECHL correction:   -0.129055
       DOS:  cpu time      0.1209: real time      0.1210
    CHARGE:  cpu time      0.2787: real time      0.2787
    MIXING:  cpu time      0.0044: real time      0.0044
    --------------------------------------------
      LOOP:  cpu time      9.1569: real time      9.1613

 eigenvalue-minimisations  : 14704
 total energy-change (2. order) : 0.1493914E+04  (-0.1292199E+03)
 number of electron     204.0000001 magnetization       0.1388247
 augmentation part       17.8131183 magnetization       0.0326098

 Broyden mixing:
  rms(total) = 0.47253E+02    rms(broyden)= 0.47253E+02
  rms(prec ) = 0.50566E+02
  weight for this iteration     100.00

 eigenvalues of (default mixing * dielectric matrix)
  average eigenvalue GAMMA=   0.5166
  0.5166  0.5166

 Free energy of the ion-electron system (eV)
  ---------------------------------------------------
  alpha Z        PSCENC =       910.59899056
  Ewald energy   TEWEN  =    -12244.41870718
  -Hartree energ DENC   =     -3465.53574355
  -exchange      EXHF   =         0.00000000
  -V(xc)+E(xc)   XCENC  =       752.84492523
  PAW double counting   =    229827.19805250  -230003.86148517
  entropy T*S    EENTRO =         0.00000000
  eigenvalues    EBANDS =     -4717.71583365
  atomic energy  EATOM  =     17511.54135177
  Solvation  Ediel_sol  =         0.00000000
  ---------------------------------------------------
  free energy    TOTEN  =     -1429.34844950 eV

  energy without entropy =    -1429.34844950  energy(sigma->0) =    -1429.34844950


--------------------------------------------------------------------------------------------------------




--------------------------------------- Iteration      1(   8)  ---------------------------------------


    POTLOK:  cpu time      0.0105: real time      0.0112
    SETDIJ:  cpu time      2.6610: real time      2.6620
     EDDAV:  cpu time      5.5742: real time      5.5770
 BZINTS: Fermi energy:   -6.253063;  204.000000 electrons
         Band energy:-0.400405E+04;  BLOECHL correction:   -0.186907
       DOS:  cpu time      0.1351: real time      0.1352
    CHARGE:  cpu time      0.2811: real time      0.2817
    MIXING:  cpu time      0.0052: real time      0.0052
    --------------------------------------------
      LOOP:  cpu time      8.6673: real time      8.6723

 eigenvalue-minimisations  : 13124
 total energy-change (2. order) : 0.7157037E+03  (-0.3741449E+03)
 number of electron     204.0000002 magnetization      -0.1788457
 augmentation part       39.8766716 magnetization       0.4632698

 Broyden mixing:
  rms(total) = 0.37464E+02    rms(broyden)= 0.37463E+02
  rms(prec ) = 0.40020E+02
  weight for this iteration     100.00

 eigenvalues of (default mixing * dielectric matrix)
  average eigenvalue GAMMA=   0.6712
  1.0351  0.4893  0.4893

 Free energy of the ion-electron system (eV)
  ---------------------------------------------------
  alpha Z        PSCENC =       910.59899056
  Ewald energy   TEWEN  =    -12244.41870718
  -Hartree energ DENC   =     -3572.96100727
  -exchange      EXHF   =         0.00000000
  -V(xc)+E(xc)   XCENC  =       775.57133075
  PAW double counting   =    165260.06524240  -165349.99249184
  entropy T*S    EENTRO =         0.00000000
  eigenvalues    EBANDS =     -4004.04950371
  atomic energy  EATOM  =     17511.54135177
  Solvation  Ediel_sol  =         0.00000000
  ---------------------------------------------------
  free energy    TOTEN  =      -713.64479453 eV

  energy without entropy =     -713.64479453  energy(sigma->0) =     -713.64479453


--------------------------------------------------------------------------------------------------------




--------------------------------------- Iteration      1(   9)  ---------------------------------------


    POTLOK:  cpu time      0.0106: real time      0.0112
    SETDIJ:  cpu time      2.6761: real time      2.6774
     EDDAV:  cpu time      5.8818: real time      5.8858
 BZINTS: Fermi energy:    5.344257;  204.000000 electrons
         Band energy:-0.254517E+04;  BLOECHL correction:   -0.046471
       DOS:  cpu time      0.1338: real time      0.1339
    CHARGE:  cpu time      0.2908: real time      0.2910
    MIXING:  cpu time      0.0045: real time      0.0045
    --------------------------------------------
      LOOP:  cpu time      8.9977: real time      9.0038

 eigenvalue-minimisations  : 13888
 total energy-change (2. order) : 0.1083508E+03  (-0.5746893E+03)
 number of electron     204.0000001 magnetization      -0.2167796
 augmentation part       16.4835773 magnetization      -0.2075126

 Broyden mixing:
  rms(total) = 0.62915E+02    rms(broyden)= 0.62915E+02
  rms(prec ) = 0.63989E+02
  weight for this iteration     100.00

 eigenvalues of (default mixing * dielectric matrix)
  average eigenvalue GAMMA=   0.6007
  1.0584  0.5443  0.5443  0.2558

 Free energy of the ion-electron system (eV)
  ---------------------------------------------------
  alpha Z        PSCENC =       910.59899056
  Ewald energy   TEWEN  =    -12244.41870718
  -Hartree energ DENC   =     -4697.88854802
  -exchange      EXHF   =         0.00000000
  -V(xc)+E(xc)   XCENC  =       827.19035629
  PAW double counting   =    118283.42505285  -118650.56918151
  entropy T*S    EENTRO =         0.00000000
  eigenvalues    EBANDS =     -2545.17329403
  atomic energy  EATOM  =     17511.54135177
  Solvation  Ediel_sol  =         0.00000000
  ---------------------------------------------------
  free energy    TOTEN  =      -605.29397928 eV

  energy without entropy =     -605.29397928  energy(sigma->0) =     -605.29397928


--------------------------------------------------------------------------------------------------------




--------------------------------------- Iteration      1(  10)  ---------------------------------------


    POTLOK:  cpu time      0.0101: real time      0.0108
    SETDIJ:  cpu time      2.6854: real time      2.6869
     EDDAV:  cpu time      6.5292: real time      6.5334
 BZINTS: Fermi energy:    5.264252;  204.000000 electrons
         Band energy:-0.243568E+04;  BLOECHL correction:   -0.070572
       DOS:  cpu time      0.1286: real time      0.1286
    CHARGE:  cpu time      0.2790: real time      0.2791
    MIXING:  cpu time      0.0039: real time      0.0039
    --------------------------------------------
      LOOP:  cpu time      9.6361: real time      9.6428

 eigenvalue-minimisations  : 15736
 total energy-change (2. order) : 0.1558512E+03  (-0.2016317E+02)
 number of electron     204.0000001 magnetization      -0.7438509
 augmentation part       16.5912862 magnetization      -0.5593052

 Broyden mixing:
  rms(total) = 0.59784E+02    rms(broyden)= 0.59784E+02
  rms(prec ) = 0.60680E+02
  weight for this iteration     100.00

 eigenvalues of (default mixing * dielectric matrix)
  average eigenvalue GAMMA=   0.8513
  1.1505  1.1505  1.0709  0.4423  0.4423

 Free energy of the ion-electron system (eV)
  ---------------------------------------------------
  alpha Z        PSCENC =       910.59899056
  Ewald energy   TEWEN  =    -12244.41870718
  -Hartree energ DENC   =     -4676.16842089
  -exchange      EXHF   =         0.00000000
  -V(xc)+E(xc)   XCENC  =       828.87943606
  PAW double counting   =    114261.72119184  -114605.91863353
  entropy T*S    EENTRO =         0.00000000
  eigenvalues    EBANDS =     -2435.67800832
  atomic energy  EATOM  =     17511.54135177
  Solvation  Ediel_sol  =         0.00000000
  ---------------------------------------------------
  free energy    TOTEN  =      -449.44279971 eV

  energy without entropy =     -449.44279971  energy(sigma->0) =     -449.44279971


--------------------------------------------------------------------------------------------------------




--------------------------------------- Iteration      1(  11)  ---------------------------------------


    POTLOK:  cpu time      0.0102: real time      0.0114
    SETDIJ:  cpu time      2.6646: real time      2.6659
     EDDAV:  cpu time      5.5458: real time      5.5487
 BZINTS: Fermi energy:    3.947181;  204.000000 electrons
         Band energy:-0.208692E+04;  BLOECHL correction:   -0.009743
       DOS:  cpu time      0.1318: real time      0.1318
    CHARGE:  cpu time      0.2789: real time      0.2790
    MIXING:  cpu time      0.0058: real time      0.0058
    --------------------------------------------
      LOOP:  cpu time      8.6370: real time      8.6426

 eigenvalue-minimisations  : 13056
 total energy-change (2. order) : 0.2288364E+03  (-0.4130127E+02)
 number of electron     204.0000001 magnetization      -1.5171232
 augmentation part       21.6441474 magnetization       0.0174765

 Broyden mixing:
  rms(total) = 0.37067E+02    rms(broyden)= 0.37067E+02
  rms(prec ) = 0.37741E+02
  weight for this iteration     100.00

 eigenvalues of (default mixing * dielectric matrix)
  average eigenvalue GAMMA=   0.9390
  1.5861  1.5861  1.0407  0.5137  0.5137  0.3936

 Free energy of the ion-electron system (eV)
  ---------------------------------------------------
  alpha Z        PSCENC =       910.59899056
  Ewald energy   TEWEN  =    -12244.41870718
  -Hartree energ DENC   =     -4804.73245089
  -exchange      EXHF   =         0.00000000
  -V(xc)+E(xc)   XCENC  =       836.00129742
  PAW double counting   =     87443.98219001   -87786.66138473
  entropy T*S    EENTRO =         0.00000000
  eigenvalues    EBANDS =     -2086.91764498
  atomic energy  EATOM  =     17511.54135177
  Solvation  Ediel_sol  =         0.00000000
  ---------------------------------------------------
  free energy    TOTEN  =      -220.60635803 eV

  energy without entropy =     -220.60635803  energy(sigma->0) =     -220.60635803


--------------------------------------------------------------------------------------------------------




--------------------------------------- Iteration      1(  12)  ---------------------------------------


    POTLOK:  cpu time      0.0107: real time      0.0112
    SETDIJ:  cpu time      2.6752: real time      2.6764
     EDDAV:  cpu time      5.6681: real time      5.6730
 BZINTS: Fermi energy:    0.783584;  204.000000 electrons
         Band energy:-0.192706E+04;  BLOECHL correction:   -0.006423
       DOS:  cpu time      0.1260: real time      0.1260
    CHARGE:  cpu time      0.2832: real time      0.2840
    MIXING:  cpu time      0.0050: real time      0.0050
    --------------------------------------------
      LOOP:  cpu time      8.7682: real time      8.7757

 eigenvalue-minimisations  : 13296
 total energy-change (2. order) : 0.5163994E+01  (-0.2661049E+02)
 number of electron     204.0000002 magnetization      -1.4483670
 augmentation part       37.1234284 magnetization      -1.5228077

 Broyden mixing:
  rms(total) = 0.19253E+02    rms(broyden)= 0.19253E+02
  rms(prec ) = 0.21415E+02
  weight for this iteration     100.00

 eigenvalues of (default mixing * dielectric matrix)
  average eigenvalue GAMMA=   0.8151
  1.4638  1.4638  1.2358  0.5074  0.5074  0.3721  0.1556

 Free energy of the ion-electron system (eV)
  ---------------------------------------------------
  alpha Z        PSCENC =       910.59899056
  Ewald energy   TEWEN  =    -12244.41870718
  -Hartree energ DENC   =     -4958.66420375
  -exchange      EXHF   =         0.00000000
  -V(xc)+E(xc)   XCENC  =       845.81827480
  PAW double counting   =     62336.33881321   -62689.59582294
  entropy T*S    EENTRO =         0.00000000
  eigenvalues    EBANDS =     -1927.06106069
  atomic energy  EATOM  =     17511.54135177
  Solvation  Ediel_sol  =         0.00000000
  ---------------------------------------------------
  free energy    TOTEN  =      -215.44236422 eV

  energy without entropy =     -215.44236422  energy(sigma->0) =     -215.44236422


--------------------------------------------------------------------------------------------------------




--------------------------------------- Iteration      1(  13)  ---------------------------------------


    POTLOK:  cpu time      0.0103: real time      0.0111
    SETDIJ:  cpu time      2.6870: real time      2.6886
     EDDAV:  cpu time      5.7153: real time      5.7194
 BZINTS: Fermi energy:    2.694931;  204.000000 electrons
         Band energy:-0.187236E+04;  BLOECHL correction:    0.000000
       DOS:  cpu time      0.0627: real time      0.0628
    CHARGE:  cpu time      0.2783: real time      0.2785
    MIXING:  cpu time      0.0059: real time      0.0059
    --------------------------------------------
      LOOP:  cpu time      8.7595: real time      8.7663

 eigenvalue-minimisations  : 13512
 total energy-change (2. order) : 0.1232061E+02  (-0.7159564E+01)
 number of electron     204.0000002 magnetization      -0.0860511
 augmentation part       27.4190343 magnetization      -0.5026518

 Broyden mixing:
  rms(total) = 0.19043E+02    rms(broyden)= 0.19042E+02
  rms(prec ) = 0.19180E+02
  weight for this iteration     100.00

 eigenvalues of (default mixing * dielectric matrix)
  average eigenvalue GAMMA=   0.7554
  1.5868  1.3329  1.3329  0.5067  0.5067  0.3490  0.3490  0.0790

 Free energy of the ion-electron system (eV)
  ---------------------------------------------------
  alpha Z        PSCENC =       910.59899056
  Ewald energy   TEWEN  =    -12244.41870718
  -Hartree energ DENC   =     -4990.14303838
  -exchange      EXHF   =         0.00000000
  -V(xc)+E(xc)   XCENC  =       846.85138684
  PAW double counting   =     61988.51085458   -62353.70680203
  entropy T*S    EENTRO =         0.00000000
  eigenvalues    EBANDS =     -1872.35578770
  atomic energy  EATOM  =     17511.54135177
  Solvation  Ediel_sol  =         0.00000000
  ---------------------------------------------------
  free energy    TOTEN  =      -203.12175154 eV

  energy without entropy =     -203.12175154  energy(sigma->0) =     -203.12175154


--------------------------------------------------------------------------------------------------------




--------------------------------------- Iteration      1(  14)  ---------------------------------------


    POTLOK:  cpu time      0.0100: real time      0.0109
    SETDIJ:  cpu time      2.6644: real time      2.6654
     EDDAV:  cpu time      5.8933: real time      5.8959
 BZINTS: Fermi energy:    2.903827;  204.000000 electrons
         Band energy:-0.183140E+04;  BLOECHL correction:   -0.000963
       DOS:  cpu time      0.1244: real time      0.1244
    CHARGE:  cpu time      0.2778: real time      0.2779
    MIXING:  cpu time      0.0047: real time      0.0047
    --------------------------------------------
      LOOP:  cpu time      8.9746: real time      8.9792

 eigenvalue-minimisations  : 14016
 total energy-change (2. order) :-0.1192891E+02  (-0.4520060E+01)
 number of electron     204.0000001 magnetization       1.6042388
 augmentation part       30.5713278 magnetization       2.2022479

 Broyden mixing:
  rms(total) = 0.16399E+02    rms(broyden)= 0.16398E+02
  rms(prec ) = 0.17086E+02
  weight for this iteration     100.00

 eigenvalues of (default mixing * dielectric matrix)
  average eigenvalue GAMMA=   0.7603
  1.4790  1.4790  1.2977  0.5771  0.5771  0.4844  0.4844  0.3904  0.0741

 Free energy of the ion-electron system (eV)
  ---------------------------------------------------
  alpha Z        PSCENC =       910.59899056
  Ewald energy   TEWEN  =    -12244.41870718
  -Hartree energ DENC   =     -5057.72226661
  -exchange      EXHF   =         0.00000000
  -V(xc)+E(xc)   XCENC  =       851.21916640
  PAW double counting   =     56840.80841182   -57195.68249331
  entropy T*S    EENTRO =         0.00000000
  eigenvalues    EBANDS =     -1831.39511699
  atomic energy  EATOM  =     17511.54135177
  Solvation  Ediel_sol  =         0.00000000
  ---------------------------------------------------
  free energy    TOTEN  =      -215.05066356 eV

  energy without entropy =     -215.05066356  energy(sigma->0) =     -215.05066356


--------------------------------------------------------------------------------------------------------




--------------------------------------- Iteration      1(  15)  ---------------------------------------


    POTLOK:  cpu time      0.0106: real time      0.0112
    SETDIJ:  cpu time      2.6606: real time      2.6615
     EDDAV:  cpu time      5.6046: real time      5.6077
 BZINTS: Fermi energy:    2.719692;  204.000000 electrons
         Band energy:-0.185766E+04;  BLOECHL correction:   -0.000523
       DOS:  cpu time      0.1246: real time      0.1246
    CHARGE:  cpu time      0.2774: real time      0.2775
    MIXING:  cpu time      0.0062: real time      0.0062
    --------------------------------------------
      LOOP:  cpu time      8.6838: real time      8.6887

 eigenvalue-minimisations  : 13192
 total energy-change (2. order) :-0.9044975E+01  (-0.8788706E+00)
 number of electron     204.0000002 magnetization       6.8603017
 augmentation part       34.5472411 magnetization       7.5926696

 Broyden mixing:
  rms(total) = 0.15336E+02    rms(broyden)= 0.15336E+02
  rms(prec ) = 0.17327E+02
  weight for this iteration     100.00

 eigenvalues of (default mixing * dielectric matrix)
  average eigenvalue GAMMA=   0.8484
  1.6530  1.6530  1.0961  1.0961  1.1226  0.5045  0.5045  0.3897  0.3897  0.0748

 Free energy of the ion-electron system (eV)
  ---------------------------------------------------
  alpha Z        PSCENC =       910.59899056
  Ewald energy   TEWEN  =    -12244.41870718
  -Hartree energ DENC   =     -5065.28273080
  -exchange      EXHF   =         0.00000000
  -V(xc)+E(xc)   XCENC  =       853.06851323
  PAW double counting   =     53222.86591449   -53554.81353201
  entropy T*S    EENTRO =         0.00000000
  eigenvalues    EBANDS =     -1857.65543887
  atomic energy  EATOM  =     17511.54135177
  Solvation  Ediel_sol  =         0.00000000
  ---------------------------------------------------
  free energy    TOTEN  =      -224.09563882 eV

  energy without entropy =     -224.09563882  energy(sigma->0) =     -224.09563882


--------------------------------------------------------------------------------------------------------




--------------------------------------- Iteration      1(  16)  ---------------------------------------


    POTLOK:  cpu time      0.0101: real time      0.0108
    SETDIJ:  cpu time      2.6757: real time      2.6774
     EDDAV:  cpu time      5.5205: real time      5.5249
 BZINTS: Fermi energy:    3.659229;  204.000000 electrons
[...]
  288          m_sumb_d                              0.000012                          2   4
  289        strnlr                                1.996518                            1   3
  290          rspher_all                            0.126648                          9   4
  291          phaser                                0.481674                        135   4
  292          rpro_isp                              1.382515                        135   4
  293            fftwav_mpi                            0.299234                     9450   5
  294              fftwav                                0.288075                   9450   6
  295                fft3d                                 0.062659                 9450   7
  296            rpromu_acc                            0.581794                     2430   5
  297          m_sumb_d                              0.000011                          1   4
  298        fft3d_mpi                             0.003826                           22   3
  299          fftbrc_mpi                            0.003059                         22   4
  300            fftbas_plan_mpi                       0.003049                       22   5
  301              map_forward                           0.001131                     20   6
  302                map_gather                            0.000245                   10   7
  303                m_alltoallv_z                         0.000138                   10   7
  304                map_scatter                           0.000591                   10   7
  305              map_backward                          0.001275                     24   6
  306                map_gather                            0.000294                   12   7
  307                m_alltoallv_z                         0.000138                   12   7
  308                map_scatter                           0.000629                   12   7
  309        m_sumb_d                              0.000031                            5   3
  310        forhar                                0.004110                            2   3
  311          m_sumb_d                              0.000070                          2   4
  312        strehar                               0.001949                            1   3
  313          m_sumb_d                              0.000003                          1   4
  314        chggra                                0.000861                            1   3
  315          fft3d_mpi                             0.000510                          3   4
  316            fftbrc_mpi                            0.000404                        3   5
  317              fftbas_plan_mpi                       0.000403                      3   6
  318                map_forward                           0.000218                    4   7
  319                  map_gather                            0.000050                  2   8
  320                  m_alltoallv_z                         0.000025                  2   8
  321                  map_scatter                           0.000111                  2   8
  322                map_backward                          0.000099                    2   7
  323                  map_gather                            0.000024                  1   8
  324                  m_alltoallv_z                         0.000010                  1   8
  325                  map_scatter                           0.000048                  1   8
  326          m_sumb_d                              0.000009                          2   4
  327          pothar                                0.000089                          1   4
  328            m_sumb_d                              0.000014                        1   5
  329        brmix                                 0.011286                            1   3
  330          m_sumb_d                              0.000055                          6   4
  331          brpre                                 0.000036                          2   4
  332          setg0                                 0.001386                          1   4
  333          broyd                                 0.008198                          1   4
  334            m_sumb_d                              0.000594                       50   5
  335            brget                                 0.001659                      224   5
  336            brsav                                 0.000341                       48   5
  337        m_bcast_d                             0.000025                            2   3
  338      potlok                                0.048938                              2   2
  339        fft3d_mpi                             0.029518                           36   3
  340          fftbrc_mpi                            0.024544                         36   4
  341            fftbas_plan_mpi                       0.024521                       36   5
  342              map_forward                           0.007175                     40   6
  343                map_gather                            0.002226                   24   7
  344                m_alltoallv_z                         0.002743                   24   7
  345                map_scatter                           0.002000                   24   7
  346              map_backward                          0.006166                     32   6
  347                map_gather                            0.002005                   16   7
  348                m_alltoallv_z                         0.002160                   16   7
  349                map_scatter                           0.001795                   16   7
  350              dfftw_execute                         0.009411                     30   6
  351        m_sumb_d                              0.000028                            5   3
  352        pothar                                0.001914                            2   3
  353          m_sumb_d                              0.000049                          2   4
  354        m_bcast_d                             0.003316                            4   3
  355      potlok_metagga                        0.000000                              1   2
  356      set_dd_magatom                        0.000004                              1   2
  357      set_dd_paw                            2.514970                              1   2
  358        m_sumb_d                              0.000435                            7   3
  359      augmentation_charge                   0.147371                              1   2
  360        fft3d_mpi                             0.065163                            2   3
  361          fftbrc_mpi                            0.057552                          2   4
  362            fftbas_plan_mpi                       0.057549                        2   5
  363              dfftw_execute                         0.034467                      6   6
  364              map_backward                          0.022827                      4   6
  365                map_gather                            0.007635                    2   7
  366                m_alltoallv_z                         0.007990                    2   7
  367                map_scatter                           0.007192                    2   7
  368      fftwav_mpi                            4.178334                           3150   2
  369        fftwav                                4.174307                         3150   3
  370          fft3d                                 3.851865                       3150   4
  371      densta                                6.054902                              1   2
 
 Flat profile
 ============
 
             routine name                   CPU           calls
 ---------------------------------------------------------------
 set_dd_paw                            354.870208         141
 eddav                                 151.928132         143
 lapack                                143.313343      304415
 raccmu_                               130.028429      304415
 redis_pw                               71.398847     1621446
 m_sumb_d                               67.490716      929755
 m_alltoall_d                           30.435651     4268964
 densta                                 20.489586         144
 fft3d                                  17.788346     1737960
 eccp                                   15.757666      150150
 phaser                                 15.444628        4485
 total_time                             14.827662           1
 orth1                                  14.694070      913395
 redis_proj                             14.133332     2058978
 dfftw_execute                          12.759180        3828
 setdij_                                12.500093         167
 augmentation_charge                    11.406508         141
 fftwav                                 11.332666     1150308
 init_acc                               11.166211           1
 racc0mu_acc                             9.006187      304415
 hamiltmu                                8.828987      304415
 overl                                   8.786704     1025184
 w1_copy                                 8.783152     1762956
 rpromu_acc                              7.636701      230705
 m_bcast_z                               6.967753      308615
 soft_charge                             6.245646         140
 setup_precond                           5.592126      150150
 ggemm                                   5.160266      381635
 m_bcast_d                               5.105777      609117
 overl_mu                                4.778578      304415
 pw_charge                               3.461786      108354
 m_alltoallv_z                           3.195671        5523
 vhamil                                  2.815425      587652
 kinhamil                                2.777664      587652
 fft3d_mpi                               2.590153      592593
 fftext_mpi                              2.532244      587652
 map_scatter                             2.515643        5523
 apply_precond                           2.489683      437502
 acc_init_cublas                         2.428572           1
 depsum                                  2.391683         140
 newband                                 2.370801      308705
 map_gather                              2.077307        5523
 set_charge                              1.676945         140
 fftwav_mpi                              1.625419     1150308
 acc_init_cusolver                       0.800670           1
 potlok                                  0.722041         141
 rpro_isp                                0.697773         195
 broyd                                   0.612354         139
 brmix                                   0.376082         139
 elmin                                   0.303336           1
 fftbas_plan_mpi                         0.285503        4941
 sphpro_fast                             0.224368           2
 w1_projall                              0.220578      227195
 brget                                   0.207348       28148
 setg0                                   0.192684         141
 rspher_all                              0.189981          14
 lincom                                  0.159388        4320
 acc_cufft_makeplan                      0.142309          19
 proall                                  0.080840           1
 truncate_high_frequency_w1              0.057733      737802
 brsav                                   0.055492        7881
 orthch                                  0.035589           1
 map_backward                            0.030600        5210
 map_forward                             0.029424        4672
 force_and_stress                        0.023074           1
 stufak                                  0.017957           1
 fft_gq                                  0.016032         140
 pothar                                  0.013610         142
 choleski                                0.013047          30
 strnlr                                  0.005670           1
 brpre                                   0.005513         278
 inisym                                  0.004279           1
 forhar                                  0.004040           2
 fftbrc_mpi                              0.002887        4941
 strelo                                  0.002568           1
 forloc                                  0.002096           1
 fornlr                                  0.001977           1
 strehar                                 0.001946           1
 strkin                                  0.001411           1
 rsp                                     0.000948           1
 set_dd_magatom                          0.000631         141
 vectorpot                               0.000587         140
 fewald                                  0.000380           1
 brgrid                                  0.000261           1
 chggra                                  0.000253           1
 fordep                                  0.000099           1
 rcp                                     0.000041           1
 posmap                                  0.000030           2
 crpa_reader                             0.000028           1
 potlok_metagga                          0.000013         140
 acc_cufft_makeplans                     0.000012           3
 rotate_active_occupied_orbital          0.000001           1
 redis_pw_over_bands                     0.000000           1
 ---------------------------------------------------------------
  summed up times     1239.149631977081     
 
 Accumulative profile
 ====================
 
             routine name                   CPU           calls
 ---------------------------------------------------------------
 total_time                           1239.149632           1
 elmin                                1183.840122           1
 eddav                                 756.402567         143
 set_dd_paw                            355.413142         141
 hamiltmu                              165.112075      304415
 raccmu_                               143.813194      304415
 lapack                                143.313343      304415
 redis_pw                               86.365185     1621446
 m_sumb_d                               67.490716      929755
 set_charge                             39.960389         140
 newband                                35.571952      308705
 m_alltoall_d                           30.435651     4268964
 redis_proj                             29.602646     2058978
 fft3d_mpi                              27.654676      592593
 fftwav_mpi                             26.578123     1150308
 setdij_                                25.184988         167
 fftwav                                 24.952703     1150308
 fftbrc_mpi                             20.896215        4941
 fftbas_plan_mpi                        20.893328        4941
 augmentation_charge                    20.597990         141
 densta                                 20.489586         144
 fft3d                                  17.788346     1737960
 eccp                                   15.757666      150150
 phaser                                 15.444628        4485
 soft_charge                            15.112139         140
 orth1                                  14.694070      913395
 dfftw_execute                          12.759180        3828
 init_acc                               11.166211           1
 kinhamil                                9.654470      587652
 force_and_stress                        9.520415           1
 racc0mu_acc                             9.006187      304415
 overl                                   8.786704     1025184
 w1_copy                                 8.783152     1762956
 rpromu_acc                              7.636701      230705
 w1_projall                              7.071849      227195
 m_bcast_z                               6.967753      308615
 fftext_mpi                              6.876806      587652
 setup_precond                           5.592126      150150
 ggemm                                   5.160266      381635
 m_bcast_d                               5.105777      609117
 overl_mu                                4.778578      304415
 map_backward                            4.211355        5210
 map_forward                             3.637289        4672
 pw_charge                               3.461786      108354
 m_alltoallv_z                           3.195671        5523
 vhamil                                  2.815425      587652
 map_scatter                             2.515643        5523
 apply_precond                           2.489683      437502
 depsum                                  2.439649         140
 acc_init_cublas                         2.428572           1
 map_gather                              2.077307        5523
 strnlr                                  1.996518           1
 rpro_isp                                1.901181         195
 potlok                                  1.625653         141
 brmix                                   1.537620         139
 broyd                                   0.945997         139
 fordep                                  0.915175           1
 acc_init_cusolver                       0.800670           1
 fornlr                                  0.667955           1
 fft_gq                                  0.435650         140
 orthch                                  0.377189           1
 sphpro_fast                             0.234510           2
 brget                                   0.207348       28148
 setg0                                   0.192684         141
 rspher_all                              0.189981          14
 proall                                  0.189757           1
 lincom                                  0.159388        4320
 acc_cufft_makeplans                     0.142321           3
 acc_cufft_makeplan                      0.142309          19
 truncate_high_frequency_w1              0.057733      737802
 brsav                                   0.055492        7881
 stufak                                  0.017957           1
 pothar                                  0.015004         142
 choleski                                0.013047          30
 brpre                                   0.005513         278
 inisym                                  0.004309           1
 forhar                                  0.004110           2
 fewald                                  0.002843           1
 strelo                                  0.002580           1
 forloc                                  0.002412           1
 strehar                                 0.001949           1
 strkin                                  0.001432           1
 rsp                                     0.000948           1
 chggra                                  0.000861           1
 set_dd_magatom                          0.000631         141
 vectorpot                               0.000587         140
 brgrid                                  0.000261           1
 rcp                                     0.000041           1
 posmap                                  0.000030           2
 crpa_reader                             0.000028           1
 potlok_metagga                          0.000013         140
 rotate_active_occupied_orbital          0.000001           1
 redis_pw_over_bands                     0.000000           1
 ---------------------------------------------------------------
 
Profiling took   3.714260  1.805467  0.003414  0.003302 seconds
Profiling took   2.423242 seconds
