 vasp.6.3.2 27Jun22 (build Jul  3 2023 11:46:21) complex                         
 executed on    LinuxNV_CrayMPICH date 2024.04.22  03:28:49
 running on    4 total cores
 distrk:  each k-point on    4 cores,    1 groups
 distr:  one band on NCORE=   1 cores,    4 groups


--------------------------------------------------------------------------------------------------------


 INCAR:
   ADDGRID = True
   ALGO = Normal
   EDIFF = 0.0007
   ENCUT = 520.0
   IBRION = -1
   ICHARG = 0
   ISIF = 3
   ISMEAR = -5
   ISPIN = 2
   KPOINT_BSE = -1 0 0 0
   LAECHG = True
   LASPH = True
   LCHARG = True
   LELF = True
   LORBIT = 11
   LREAL = Auto
   LVHAR = True
   LWAVE = False
   MAGMOM = 2*0.6 2*7.0 10*0.6
   NELM = 1000
   NSW = 0
   PREC = accurate
   SIGMA = 0.05

 POTCAR:    PAW_PBE K_sv 06Sep2000                
 POTCAR:    PAW_PBE Eu 23Dec2003                  
 POTCAR:    PAW_PBE Si 05Jan2001                  
 POTCAR:    PAW_PBE S 06Sep2000                   
 POTCAR:    PAW_PBE K_sv 06Sep2000                
   SHA256 =  bf8373ef592e31d27efa2dcc68371be6d6a25ce4db6c2ffaf9e92c44050ba21a K_sv/POTCAR           
   COPYR  = (c) Copyright 06Sep2000 Georg Kresse                                                    
   COPYR  = This file is part of the software VASP. Any use, copying, and all other rights are regul
   COPYR  = If you do not have a valid VASP license, you may not use, copy or distribute this file. 
   VRHFIN =K:  3s3p4s                                                                               
   LEXCH  = PE                                                                                      
   EATOM  =   775.0067 eV,   56.9614 Ry                                                             
                                                                                                    
   TITEL  = PAW_PBE K_sv 06Sep2000                                                                  
   LULTRA =        F    use ultrasoft PP ?                                                          
   IUNSCR =        1    unscreen: 0-lin 1-nonlin 2-no                                               
   RPACOR =    2.200    partial core radius                                                         
   POMASS =   39.098; ZVAL   =    9.000    mass and valenz                                          
   RCORE  =    2.300    outmost cutoff radius                                                       
   RWIGS  =    3.000; RWIGS  =    1.588    wigner-seitz radius (au A)                               
   ENMAX  =  259.264; ENMIN  =  194.448 eV                                                          
   RCLOC  =    2.005    cutoff for local pot                                                        
   LCOR   =        T    correct aug charges                                                         
   LPAW   =        T    paw PP                                                                      
   EAUG   =  427.853                                                                                
   DEXC   =    0.000                                                                                
   RMAX   =    2.358    core radius for proj-oper                                                   
   RAUG   =    1.300    factor for augmentation sphere                                              
   RDEP   =    2.372    radius for radial grids                                                     
   RDEPT  =    2.002    core radius for aug-charge                                                  
                                                                                                    
   Atomic configuration                                                                             
    7 entries                                                                                       
     n  l   j            E        occ.                                                              
     1  0  0.50     -3522.0595   2.0000                                                             
     2  0  0.50      -353.3851   2.0000                                                             
     2  1  1.50      -280.0935   6.0000                                                             
     3  0  0.50       -35.3419   2.0000                                                             
     4  0  0.50        -2.3190   1.0000                                                             
     3  1  1.50       -18.8125   6.0000                                                             
     3  2  1.50        -1.3606   0.0000                                                             
   Description                                                                                      
     l       E           TYP  RCUT    TYP  RCUT                                                     
     0    -35.3418873     23  2.300                                                                 
     0     -2.3190215     23  2.300                                                                 
     1    -18.8124623     23  2.300                                                                 
     1    -20.4087390     23  2.300                                                                 
     2     -1.3605826     23  2.300                                                                 
  local pseudopotential read in
  partial core-charges read in
  partial kinetic energy density read in
  atomic valenz-charges read in
  non local Contribution for L=            0  read in
    real space projection operators read in
  non local Contribution for L=            0  read in
    real space projection operators read in
  non local Contribution for L=            1  read in
    real space projection operators read in
  non local Contribution for L=            1  read in
    real space projection operators read in
  non local Contribution for L=            2  read in
    real space projection operators read in
    PAW grid and wavefunctions read in
 
   number of l-projection  operators is LMAX  =            5
   number of lm-projection operators is LMMAX =           13
 
 POTCAR:    PAW_PBE Eu 23Dec2003                  
   SHA256 =  ed303d27e7c5191953f9b15539336e6f36d9037c1d2e92e80c13d733697cb93d Eu/POTCAR             
   COPYR  = (c) Copyright 23Dec2003 Georg Kresse                                                    
   COPYR  = This file is part of the software VASP. Any use, copying, and all other rights are regul
   COPYR  = If you do not have a valid VASP license, you may not use, copy or distribute this file. 
   VRHFIN =Eu : [core=Kr4d]                                                                         
   LEXCH  = PE                                                                                      
   EATOM  =  2619.8085 eV,  192.5505 Ry                                                             
                                                                                                    
   TITEL  = PAW_PBE Eu 23Dec2003                                                                    
   LULTRA =        F    use ultrasoft PP ?                                                          
   IUNSCR =        1    unscreen: 0-lin 1-nonlin 2-no                                               
   RPACOR =    2.300    partial core radius                                                         
   POMASS =  151.965; ZVAL   =   17.000    mass and valenz                                          
   RCORE  =    2.800    outmost cutoff radius                                                       
   RWIGS  =    2.800; RWIGS  =    1.482    wigner-seitz radius (au A)                               
   ENMAX  =  249.668; ENMIN  =  187.251 eV                                                          
   RCLOC  =    2.308    cutoff for local pot                                                        
   LCOR   =        T    correct aug charges                                                         
   LPAW   =        T    paw PP                                                                      
   EAUG   =  549.628                                                                                
   DEXC   =    0.000                                                                                
   RMAX   =    2.870    core radius for proj-oper                                                   
   RAUG   =    1.300    factor for augmentation sphere                                              
   RDEP   =    2.887    radius for radial grids                                                     
   RDEPT  =    2.221    core radius for aug-charge                                                  
                                                                                                    
   Atomic configuration                                                                             
   14 entries                                                                                       
     n  l   j            E        occ.                                                              
     1  0  0.50    -48354.7667   2.0000                                                             
     2  0  0.50     -7939.6472   2.0000                                                             
     2  1  1.50     -7072.6637   6.0000                                                             
     3  0  0.50     -1747.1875   2.0000                                                             
     3  1  1.50     -1477.5221   6.0000                                                             
     3  2  2.50     -1117.4686  10.0000                                                             
     4  0  0.50      -346.8682   2.0000                                                             
     4  1  1.50      -258.1962   6.0000                                                             
     4  2  2.50      -134.7724  10.0000                                                             
     5  0  0.50       -44.6510   2.0000                                                             
     6  0  0.50        -3.6227   2.0000                                                             
     5  1  1.50       -23.7639   6.0000                                                             
     5  2  2.50        -1.3130   0.0000                                                             
     4  3  2.50        -2.7310   7.0000                                                             
   Description                                                                                      
     l       E           TYP  RCUT    TYP  RCUT                                                     
     0    -44.6510453     23  2.400                                                                 
     0     -3.6226685     23  2.400                                                                 
     1    -23.7638687     23  2.400                                                                 
     1     27.2116520     23  2.400                                                                 
     2     -1.3129622     23  2.500                                                                 
     2     13.6058260     23  2.500                                                                 
     3     -2.7309948     23  2.800                                                                 
     3     -3.4014565     23  2.800                                                                 
  local pseudopotential read in
  partial core-charges read in
  partial kinetic energy density read in
  atomic valenz-charges read in
  non local Contribution for L=            0  read in
    real space projection operators read in
  non local Contribution for L=            0  read in
    real space projection operators read in
  non local Contribution for L=            1  read in
    real space projection operators read in
  non local Contribution for L=            1  read in
    real space projection operators read in
  non local Contribution for L=            2  read in
    real space projection operators read in
  non local Contribution for L=            2  read in
    real space projection operators read in
  non local Contribution for L=            3  read in
    real space projection operators read in
  non local Contribution for L=            3  read in
    real space projection operators read in
    PAW grid and wavefunctions read in
 
   number of l-projection  operators is LMAX  =            8
   number of lm-projection operators is LMMAX =           32
 
 POTCAR:    PAW_PBE Si 05Jan2001                  
   SHA256 =  79d9987ad8750f624c4d6acb2a16d13abf6a777132adc04dc6c8399be72b42bb Si/POTCAR             
   COPYR  = (c) Copyright 05Jan2001 Georg Kresse                                                    
   COPYR  = This file is part of the software VASP. Any use, copying, and all other rights are regul
   COPYR  = If you do not have a valid VASP license, you may not use, copy or distribute this file. 
   VRHFIN =Si: s2p2                                                                                 
   LEXCH  = PE                                                                                      
   EATOM  =   103.0669 eV,    7.5752 Ry                                                             
                                                                                                    
   TITEL  = PAW_PBE Si 05Jan2001                                                                    
   LULTRA =        F    use ultrasoft PP ?                                                          
   IUNSCR =        1    unscreen: 0-lin 1-nonlin 2-no                                               
   RPACOR =    1.500    partial core radius                                                         
   POMASS =   28.085; ZVAL   =    4.000    mass and valenz                                          
   RCORE  =    1.900    outmost cutoff radius                                                       
   RWIGS  =    2.480; RWIGS  =    1.312    wigner-seitz radius (au A)                               
   ENMAX  =  245.345; ENMIN  =  184.009 eV                                                          
   ICORE  =        2    local potential                                                             
   LCOR   =        T    correct aug charges                                                         
   LPAW   =        T    paw PP                                                                      
   EAUG   =  322.069                                                                                
   DEXC   =    0.000                                                                                
   RMAX   =    1.950    core radius for proj-oper                                                   
   RAUG   =    1.300    factor for augmentation sphere                                              
   RDEP   =    1.993    radius for radial grids                                                     
   RDEPT  =    1.837    core radius for aug-charge                                                  
                                                                                                    
   Atomic configuration                                                                             
    6 entries                                                                                       
     n  l   j            E        occ.                                                              
     1  0  0.50     -1785.8828   2.0000                                                             
     2  0  0.50      -139.4969   2.0000                                                             
     2  1  1.50       -95.5546   6.0000                                                             
     3  0  0.50       -10.8127   2.0000                                                             
     3  1  0.50        -4.0811   2.0000                                                             
     3  2  1.50        -4.0817   0.0000                                                             
   Description                                                                                      
     l       E           TYP  RCUT    TYP  RCUT                                                     
     0    -10.8127223     23  1.900                                                                 
     0     -7.6451159     23  1.900                                                                 
     1     -4.0811372     23  1.900                                                                 
     1      2.4879257     23  1.900                                                                 
     2     -4.0817478      7  1.900                                                                 
  local pseudopotential read in
  partial core-charges read in
  partial kinetic energy density read in
  atomic valenz-charges read in
  non local Contribution for L=            0  read in
    real space projection operators read in
  non local Contribution for L=            0  read in
    real space projection operators read in
  non local Contribution for L=            1  read in
    real space projection operators read in
  non local Contribution for L=            1  read in
    real space projection operators read in
    PAW grid and wavefunctions read in
 
   number of l-projection  operators is LMAX  =            4
   number of lm-projection operators is LMMAX =            8
 
 POTCAR:    PAW_PBE S 06Sep2000                   
   SHA256 =  0fc7481fb0695f01bdc6462160264c5c84044ae9ec85a907d398b887a2bc3132 S/POTCAR              
   COPYR  = (c) Copyright 06Sep2000 Georg Kresse                                                    
   COPYR  = This file is part of the software VASP. Any use, copying, and all other rights are regul
   COPYR  = If you do not have a valid VASP license, you may not use, copy or distribute this file. 
   VRHFIN =S : s2p4                                                                                 
   LEXCH  = PE                                                                                      
   EATOM  =   276.8230 eV,   20.3459 Ry                                                             
                                                                                                    
   TITEL  = PAW_PBE S 06Sep2000                                                                     
   LULTRA =        F    use ultrasoft PP ?                                                          
   IUNSCR =        1    unscreen: 0-lin 1-nonlin 2-no                                               
   RPACOR =    1.500    partial core radius                                                         
   POMASS =   32.066; ZVAL   =    6.000    mass and valenz                                          
   RCORE  =    1.900    outmost cutoff radius                                                       
   RWIGS  =    2.200; RWIGS  =    1.164    wigner-seitz radius (au A)                               
   ENMAX  =  258.689; ENMIN  =  194.016 eV                                                          
   ICORE  =        2    local potential                                                             
   LCOR   =        T    correct aug charges                                                         
   LPAW   =        T    paw PP                                                                      
   EAUG   =  335.092                                                                                
   DEXC   =    0.000                                                                                
   RMAX   =    1.942    core radius for proj-oper                                                   
   RAUG   =    1.300    factor for augmentation sphere                                              
   RDEP   =    1.954    radius for radial grids                                                     
   RDEPT  =    1.744    core radius for aug-charge                                                  
                                                                                                    
   Atomic configuration                                                                             
    6 entries                                                                                       
     n  l   j            E        occ.                                                              
     1  0  0.50     -2405.8406   2.0000                                                             
     2  0  0.50      -211.7007   2.0000                                                             
     2  1  1.50      -156.4958   6.0000                                                             
     3  0  0.50       -17.2562   2.0000                                                             
     3  1  0.50        -7.0085   4.0000                                                             
     3  2  1.50        -6.8029   0.0000                                                             
   Description                                                                                      
     l       E           TYP  RCUT    TYP  RCUT                                                     
     0    -17.2561641     23  1.900                                                                 
     0    -15.8743224     23  1.900                                                                 
     1     -7.0085400     23  1.900                                                                 
     1     -2.7779785     23  1.900                                                                 
     2     -6.8029130     23  1.900                                                                 
  local pseudopotential read in
  partial core-charges read in
  partial kinetic energy density read in
  atomic valenz-charges read in
  non local Contribution for L=            0  read in
    real space projection operators read in
  non local Contribution for L=            0  read in
    real space projection operators read in
  non local Contribution for L=            1  read in
    real space projection operators read in
  non local Contribution for L=            1  read in
    real space projection operators read in
    PAW grid and wavefunctions read in
 
   number of l-projection  operators is LMAX  =            4
   number of lm-projection operators is LMMAX =            8
 
 Optimization of the real space projectors (new method)

 maximal supplied QI-value         = 16.25
 optimisation between [QCUT,QGAM] = [ 11.54, 23.24] = [ 37.28,151.24] Ry 
 Optimized for a Real-space Cutoff    1.32 Angstroem

   l    n(q)    QCUT    max X(q) W(low)/X(q) W(high)/X(q)  e(spline) 
   0      9    11.539    11.234    0.52E-04    0.40E-04    0.14E-07
   0      9    11.539    12.505    0.97E-04    0.77E-04    0.27E-07
   1      9    11.539   167.359    0.18E-03    0.11E-02    0.48E-06
   1      9    11.539   168.875    0.18E-03    0.11E-02    0.48E-06
   2      8    11.539     3.435    0.16E-03    0.11E-03    0.38E-07
 Optimization of the real space projectors (new method)

 maximal supplied QI-value         = 13.42
 optimisation between [QCUT,QGAM] = [ 11.67, 23.35] = [ 38.16,152.62] Ry 
 Optimized for a Real-space Cutoff    1.63 Angstroem

   l    n(q)    QCUT    max X(q) W(low)/X(q) W(high)/X(q)  e(spline) 
   0     11    11.673    10.400    0.14E-04    0.18E-05    0.24E-07
   0     11    11.673    10.768    0.21E-04    0.32E-05    0.49E-07
   1     11    11.673     4.094    0.40E-05    0.13E-04    0.93E-07
   1     11    11.673     4.009    0.11E-04    0.46E-04    0.33E-06
   2     10    11.673    29.030    0.79E-04    0.60E-04    0.70E-06
   2     10    11.673    19.941    0.80E-04    0.60E-04    0.71E-06
   3     10    11.673    88.889    0.23E-03    0.29E-03    0.30E-06
   3     10    11.673    76.102    0.23E-03    0.30E-03    0.30E-06
 Optimization of the real space projectors (new method)

 maximal supplied QI-value         = 19.84
 optimisation between [QCUT,QGAM] = [ 11.51, 23.22] = [ 37.09,150.92] Ry 
 Optimized for a Real-space Cutoff    1.21 Angstroem

   l    n(q)    QCUT    max X(q) W(low)/X(q) W(high)/X(q)  e(spline) 
   0      8    11.508   159.560    0.71E-04    0.15E-03    0.51E-07
   0      8    11.508   115.863    0.70E-04    0.15E-03    0.51E-07
   1      8    11.508    88.339    0.16E-03    0.38E-04    0.82E-07
   1      8    11.508    48.592    0.15E-03    0.36E-04    0.79E-07
 Optimization of the real space projectors (new method)

 maximal supplied QI-value         = 19.84
 optimisation between [QCUT,QGAM] = [ 11.51, 23.22] = [ 37.09,150.92] Ry 
 Optimized for a Real-space Cutoff    1.21 Angstroem

   l    n(q)    QCUT    max X(q) W(low)/X(q) W(high)/X(q)  e(spline) 
   0      8    11.508   187.594    0.96E-04    0.18E-03    0.54E-07
   0      8    11.508   164.243    0.96E-04    0.18E-03    0.54E-07
   1      8    11.508    67.533    0.18E-03    0.65E-04    0.94E-07
   1      8    11.508    50.729    0.18E-03    0.63E-04    0.92E-07
  PAW_PBE K_sv 06Sep2000                :
 energy of atom  1       EATOM= -775.0067
 kinetic energy error for atom=    0.0014 (will be added to EATOM!!)
  PAW_PBE Eu 23Dec2003                  :
 energy of atom  2       EATOM=-2619.8085
 kinetic energy error for atom=    0.0015 (will be added to EATOM!!)
  PAW_PBE Si 05Jan2001                  :
 energy of atom  3       EATOM= -103.0669
 kinetic energy error for atom=    0.0005 (will be added to EATOM!!)
  PAW_PBE S 06Sep2000                   :
 energy of atom  4       EATOM= -276.8230
 kinetic energy error for atom=    0.0016 (will be added to EATOM!!)
 
 
 POSCAR: K2 Eu2 Si2 S8
  positions in direct lattice
  No initial velocities read in
 exchange correlation table for  LEXCH =        8
   RHO(1)=    0.500       N(1)  =     2000
   RHO(2)=  100.500       N(2)  =     4000

 VTST: version 4.2, (08/11/21)

 CHAIN: initializing optimizer
 
 OPT: Using VASP Dynamics algorithm
 CHAIN: Read ICHAIN             0
 
 POSCAR: K2 Eu2 Si2 S8
  positions in direct lattice
  No initial velocities read in
 


--------------------------------------------------------------------------------------------------------


 ion  position               nearest neighbor table
   1  0.308  0.228  0.067-  11 3.30
   2  0.808  0.772  0.933-   7 3.30
   3  0.774  0.735  0.445-  13 2.83   7 2.84  10 2.86  14 2.91  11 2.92  12 2.94   9 3.00
   4  0.274  0.265  0.555-   8 2.83  11 2.84  12 2.86   9 2.91   7 2.92  10 2.94  14 3.00
   5  0.325  0.717  0.677-   8 2.11  14 2.14  12 2.14  11 2.14
   6  0.825  0.283  0.323-  13 2.11   9 2.14  10 2.14   7 2.14
   7  0.879  0.081  0.562-   6 2.14   3 2.84   4 2.92   2 3.30
   8  0.326  0.911  0.832-   5 2.11   4 2.83
   9  0.053  0.519  0.276-   6 2.14   4 2.91   3 3.00
  10  0.559  0.468  0.299-   6 2.14   3 2.86   4 2.94
  11  0.379  0.919  0.438-   5 2.14   4 2.84   3 2.92   1 3.30
  12  0.059  0.532  0.701-   5 2.14   4 2.86   3 2.94
  13  0.826  0.089  0.168-   6 2.11   3 2.83
  14  0.553  0.481  0.724-   5 2.14   3 2.91   4 3.00
 
  LATTYP: Found a simple monoclinic cell.
 ALAT       =     6.5756690000
 B/A-ratio  =     1.0243944761
 C/A-ratio  =     1.3238560580
 COS(beta)  =    -0.3010241221
  
  Lattice vectors:
  
 A1 = (   0.0000000000,   6.5756690000,   0.0000000000)
 A2 = (   6.7360790000,   0.0000000000,   0.0000000000)
 A3 = (   0.0000000000,  -2.6204870000,  -8.3014600000)


Analysis of symmetry for initial positions (statically):
=====================================================================
 Subroutine PRICEL returns:
 Original cell was already a primitive cell.
 

 Routine SETGRP: Setting up the symmetry group for a 
 simple monoclinic supercell.


 Subroutine GETGRP returns: Found  2 space group operations
 (whereof  1 operations were pure point group operations)
 out of a pool of  4 trial point group operations.


The static configuration has the point symmetry C_1 .
 The point group associated with its full space group is C_2 .


Analysis of symmetry for dynamics (positions and initial velocities):
=====================================================================
 Subroutine PRICEL returns:
 Original cell was already a primitive cell.
 

 Routine SETGRP: Setting up the symmetry group for a 
 simple monoclinic supercell.


 Subroutine GETGRP returns: Found  2 space group operations
 (whereof  1 operations were pure point group operations)
 out of a pool of  4 trial point group operations.


The dynamic configuration has the point symmetry C_1 .
 The point group associated with its full space group is C_2 .


Analysis of structural, dynamic, and magnetic symmetry:
=====================================================================
 Subroutine PRICEL returns:
 Original cell was already a primitive cell.
 

 Routine SETGRP: Setting up the symmetry group for a 
 simple monoclinic supercell.


 Subroutine GETGRP returns: Found  2 space group operations
 (whereof  1 operations were pure point group operations)
 out of a pool of  4 trial point group operations.


The overall configuration has the point symmetry C_1 .
 The point group associated with its full space group is C_2 .


 Subroutine INISYM returns: Found  2 space group operations
 (whereof  1 operations are pure point group operations),
 and found     1 'primitive' translations


----------------------------------------------------------------------------------------

                                     Primitive cell                                     

  volume of cell :     367.7067

  direct lattice vectors                    reciprocal lattice vectors
     6.736079000  0.000000000  0.000000000     0.148454316  0.000000000  0.000000000
     0.000000000  6.575669000  0.000000000     0.000000000  0.152075781 -0.048005123
     0.000000000  2.620487000  8.301460000     0.000000000  0.000000000  0.120460738

  length of vectors
     6.736079000  6.575669000  8.705239241     0.148454316  0.159472678  0.120460738

  position of ions in fractional coordinates (direct lattice)
     0.308316000  0.228310000  0.066696000
     0.808316000  0.771690000  0.933304000
     0.774113000  0.735204000  0.445440000
     0.274113000  0.264796000  0.554560000
     0.324712000  0.717352000  0.677456000
     0.824712000  0.282648000  0.322544000
     0.879078000  0.080885000  0.561875000
     0.326327000  0.910741000  0.832441000
     0.052625000  0.519327000  0.275792000
     0.559259000  0.467552000  0.298557000
     0.379078000  0.919115000  0.438125000
     0.059259000  0.532448000  0.701443000
     0.826327000  0.089259000  0.167559000
     0.552625000  0.480673000  0.724208000

  ion indices of the primitive-cell ions
   primitive index   ion index
                 1           1
                 2           2
                 3           3
                 4           4
                 5           5
                 6           6
                 7           7
                 8           8
                 9           9
                10          10
                11          11
                12          12
                13          13
                14          14

----------------------------------------------------------------------------------------

 
 
 KPOINTS: Kpoints from vasprun.xml                

Automatic generation of k-mesh.
 Grid dimensions read from file:
 generate k-points for:    4    4    3

 Generating k-lattice:

  Cartesian coordinates                     Fractional coordinates (reciprocal lattice)
     0.037113579  0.000000000  0.000000000     0.250000000  0.000000000  0.000000000
     0.000000000  0.038018945 -0.012001281     0.000000000  0.250000000  0.000000000
     0.000000000  0.000000000  0.040153579     0.000000000  0.000000000  0.333333333

  Length of vectors
     0.037113579  0.039868170  0.040153579

  Shift w.r.t. Gamma in fractional coordinates (k-lattice)
     0.000000000  0.000000000  0.000000000

 TETIRR: Found    144 inequivalent tetrahedra from      288
 
 Subroutine IBZKPT returns following result:
 ===========================================
 
 Found     21 irreducible k-points:
 
 Following reciprocal coordinates:
            Coordinates               Weight
  0.000000  0.000000  0.000000      1.000000
  0.250000  0.000000  0.000000      2.000000
  0.500000  0.000000  0.000000      1.000000
  0.000000  0.250000  0.000000      2.000000
  0.250000  0.250000  0.000000      4.000000
  0.500000  0.250000  0.000000      2.000000
  0.000000  0.500000  0.000000      1.000000
  0.250000  0.500000  0.000000      2.000000
  0.500000  0.500000  0.000000      1.000000
  0.000000  0.000000  0.333333      2.000000
  0.250000  0.000000  0.333333      4.000000
  0.500000  0.000000  0.333333      2.000000
  0.000000  0.250000  0.333333      2.000000
  0.250000  0.250000  0.333333      4.000000
  0.500000  0.250000  0.333333      2.000000
  0.000000  0.500000  0.333333      2.000000
  0.250000  0.500000  0.333333      4.000000
  0.500000  0.500000  0.333333      2.000000
  0.000000 -0.250000  0.333333      2.000000
  0.250000 -0.250000  0.333333      4.000000
  0.500000 -0.250000  0.333333      2.000000
 
 Following cartesian coordinates:
            Coordinates               Weight
  0.000000  0.000000  0.000000      1.000000
  0.037114  0.000000  0.000000      2.000000
  0.074227  0.000000  0.000000      1.000000
  0.000000  0.038019 -0.012001      2.000000
  0.037114  0.038019 -0.012001      4.000000
  0.074227  0.038019 -0.012001      2.000000
  0.000000  0.076038 -0.024003      1.000000
  0.037114  0.076038 -0.024003      2.000000
  0.074227  0.076038 -0.024003      1.000000
  0.000000  0.000000  0.040154      2.000000
  0.037114  0.000000  0.040154      4.000000
  0.074227  0.000000  0.040154      2.000000
  0.000000  0.038019  0.028152      2.000000
  0.037114  0.038019  0.028152      4.000000
  0.074227  0.038019  0.028152      2.000000
  0.000000  0.076038  0.016151      2.000000
  0.037114  0.076038  0.016151      4.000000
  0.074227  0.076038  0.016151      2.000000
  0.000000 -0.038019  0.052155      2.000000
  0.037114 -0.038019  0.052155      4.000000
  0.074227 -0.038019  0.052155      2.000000
 


--------------------------------------------------------------------------------------------------------




 Dimension of arrays:
   k-points           NKPTS =     21   k-points in BZ     NKDIM =     21   number of bands    NBANDS=     76
   number of dos      NEDOS =    301   number of ions     NIONS =     14
   non local maximal  LDIM  =      8   non local SUM 2l+1 LMDIM =     32
   total plane-waves  NPLWV = 175000
   max r-space proj   IRMAX =   8639   max aug-charges    IRDMAX= 217835
   dimension x,y,z NGX =    50 NGY =   50 NGZ =   70
   dimension x,y,z NGXF=   100 NGYF=  100 NGZF=  140
   support grid    NGXF=   200 NGYF=  200 NGZF=  280
   ions per type =               2   2   2   8
   NGX,Y,Z   is equivalent  to a cutoff of  12.34, 12.64, 13.37 a.u.
   NGXF,Y,Z  is equivalent  to a cutoff of  24.68, 25.28, 26.74 a.u.

 SYSTEM =  unknown system                          
 POSCAR =  K2 Eu2 Si2 S8                           

 Startparameter for this run:
   NWRITE =      2    write-flag & timer
   PREC   = accura    normal or accurate (medium, high low for compatibility)
   ISTART =      0    job   : 0-new  1-cont  2-samecut
   ICHARG =      0    charge: 1-file 2-atom 10-const
   ISPIN  =      2    spin polarized calculation?
   LNONCOLLINEAR =      F non collinear calculations
   LSORBIT =      F    spin-orbit coupling
   INIWAV =      1    electr: 0-lowe 1-rand  2-diag
   LASPH  =      T    aspherical Exc in radial PAW
 Electronic Relaxation 1
   ENCUT  =  520.0 eV  38.22 Ry    6.18 a.u.  12.52 12.23 16.19*2*pi/ulx,y,z
   ENINI  =  520.0     initial cutoff
   ENAUG  =  549.6 eV  augmentation charge cutoff
   NELM   =   1000;   NELMIN=  2; NELMDL= -5     # of ELM steps 
   EDIFF  = 0.7E-03   stopping-criterion for ELM
   LREAL  =      T    real-space projection
   NLSPLINE    = F    spline interpolate recip. space projectors
   LCOMPAT=      F    compatible to vasp.4.4
   GGA_COMPAT  = T    GGA compatible to vasp.4.4-vasp.4.6
   LMAXPAW     = -100 max onsite density
   LMAXMIX     =    2 max onsite mixed and CHGCAR
   VOSKOWN=      0    Vosko Wilk Nusair interpolation
   ROPT   =   -0.00025  -0.00025  -0.00025  -0.00025
 Ionic relaxation
   EDIFFG = 0.7E-02   stopping-criterion for IOM
   NSW    =      0    number of steps for IOM
   NBLOCK =      1;   KBLOCK =      1    inner block; outer block 
   IBRION =     -1    ionic relax: 0-MD 1-quasi-New 2-CG
   NFREE  =      0    steps in history (QN), initial steepest desc. (CG)
   ISIF   =      3    stress and relaxation
   IWAVPR =     10    prediction:  0-non 1-charg 2-wave 3-comb
   ISYM   =      2    0-nonsym 1-usesym 2-fastsym
   LCORR  =      T    Harris-Foulkes like correction to forces

   POTIM  = 0.5000    time-step for ionic-motion
   TEIN   =    0.0    initial temperature
   TEBEG  =    0.0;   TEEND  =   0.0 temperature during run
   SMASS  =  -3.00    Nose mass-parameter (am)
   estimated Nose-frequenzy (Omega)   =  0.10E-29 period in steps = 0.13E+47 mass=  -0.104E-26a.u.
   SCALEE = 1.0000    scale energy and forces
   NPACO  =    256;   APACO  = 10.0  distance and # of slots for P.C.
   PSTRESS=    0.0 pullay stress

  Mass of Ions in am
   POMASS =  39.10151.97 28.09 32.07
  Ionic Valenz
   ZVAL   =   9.00 17.00  4.00  6.00
  Atomic Wigner-Seitz radii
   RWIGS  =  -1.00 -1.00 -1.00 -1.00
  virtual crystal weights 
   VCA    =   1.00  1.00  1.00  1.00
   NELECT =     108.0000    total number of electrons
   NUPDOWN=      -1.0000    fix difference up-down

 DOS related values:
   EMIN   =  10.00;   EMAX   =-10.00  energy-range for DOS
   EFERMI =   0.00
   ISMEAR =    -5;   SIGMA  =   0.05  broadening in eV -4-tet -1-fermi 0-gaus

 Electronic relaxation 2 (details)
   IALGO  =     38    algorithm
   LDIAG  =      T    sub-space diagonalisation (order eigenvalues)
   LSUBROT=      F    optimize rotation matrix (better conditioning)
   TURBO    =      0    0=normal 1=particle mesh
   IRESTART =      0    0=no restart 2=restart with 2 vectors
   NREBOOT  =      0    no. of reboots
   NMIN     =      0    reboot dimension
   EREF     =   0.00    reference energy to select bands
   IMIX   =      4    mixing-type and parameters
     AMIX     =   0.40;   BMIX     =  1.00
     AMIX_MAG =   1.60;   BMIX_MAG =  1.00
     AMIN     =   0.10
     WC   =   100.;   INIMIX=   1;  MIXPRE=   1;  MAXMIX= -45

 Intra band minimization:
   WEIMIN = 0.0000     energy-eigenvalue tresh-hold
   EBREAK =  0.23E-05  absolut break condition
   DEPER  =   0.30     relativ break condition  

   TIME   =   0.40     timestep for ELM

  volume/ion in A,a.u.               =      26.26       177.24
  Fermi-wavevector in a.u.,A,eV,Ry     =   1.088217  2.056432 16.112243  1.184216
  Thomas-Fermi vector in A             =   2.224394
 
 Write flags
   LWAVE        =      F    write WAVECAR
   LDOWNSAMPLE  =      F    k-point downsampling of WAVECAR
   LCHARG       =      T    write CHGCAR
   LVTOT        =      F    write LOCPOT, total local potential
   LVHAR        =      T    write LOCPOT, Hartree potential only
   LELF         =      T    write electronic localiz. function (ELF)
   LORBIT       =     11    0 simple, 1 ext, 2 COOP (PROOUT), +10 PAW based schemes


 Dipole corrections
   LMONO  =      F    monopole corrections only (constant potential shift)
   LDIPOL =      F    correct potential (dipole corrections)
   IDIPOL =      0    1-x, 2-y, 3-z, 4-all directions 
   EPSILON=  1.0000000 bulk dielectric constant

 Exchange correlation treatment:
   GGA     =    --    GGA type
   LEXCH   =     8    internal setting for exchange type
   LIBXC   =     F    Libxc                    
   VOSKOWN =     0    Vosko Wilk Nusair interpolation
   LHFCALC =     F    Hartree Fock is set to
   LHFONE  =     F    Hartree Fock one center treatment
   AEXX    =    0.0000 exact exchange contribution

 Linear response parameters
   LEPSILON=     F    determine dielectric tensor
   LRPA    =     F    only Hartree local field effects (RPA)
   LNABLA  =     F    use nabla operator in PAW spheres
   LVEL    =     F    velocity operator in full k-point grid
   CSHIFT  =0.1000    complex shift for real part using Kramers Kronig
   OMEGAMAX=  -1.0    maximum frequency
   DEG_THRESHOLD= 0.2000000E-02 threshold for treating states as degnerate
   RTIME   =   -0.100 relaxation time in fs
  (WPLASMAI=    0.000 imaginary part of plasma frequency in eV, 0.658/RTIME)
   DFIELD  = 0.0000000 0.0000000 0.0000000 field for delta impulse in time
 
  Optional k-point grid parameters
   LKPOINTS_OPT  =     F    use optional k-point grid
   KPOINTS_OPT_MODE=     1    mode for optional k-point grid
 
 Orbital magnetization related:
   ORBITALMAG=     F  switch on orbital magnetization
   LCHIMAG   =     F  perturbation theory with respect to B field
   DQ        =  0.001000  dq finite difference perturbation B field
   LLRAUG    =     F  two centre corrections for induced B field



--------------------------------------------------------------------------------------------------------


 Static calculation
 charge density and potential will be updated during run
 spin polarized calculation
 Variant of blocked Davidson
 Davidson routine will perform the subspace rotation
 perform sub-space diagonalisation
    after iterative eigenvector-optimisation
 modified Broyden-mixing scheme, WC =      100.0
 initial mixing is a Kerker type mixing with AMIX =  0.4000 and BMIX =      1.0000
 Hartree-type preconditioning will be used
 using additional bands            22
 real space projection scheme for non local part
 use partial core corrections
 calculate Harris-corrections to forces 
   (improved forces if not selfconsistent)
 use gradient corrections 
 use of overlap-Matrix (Vanderbilt PP)
 Fermi weights with tetrahedron method with Bloechl corrections


--------------------------------------------------------------------------------------------------------


  energy-cutoff  :      520.00
  volume of cell :      367.71
      direct lattice vectors                 reciprocal lattice vectors
     6.736079000  0.000000000  0.000000000     0.148454316  0.000000000  0.000000000
     0.000000000  6.575669000  0.000000000     0.000000000  0.152075781 -0.048005123
     0.000000000  2.620487000  8.301460000     0.000000000  0.000000000  0.120460738

  length of vectors
     6.736079000  6.575669000  8.705239241     0.148454316  0.159472678  0.120460738


 
 k-points in units of 2pi/SCALE and weight: Kpoints from vasprun.xml                
   0.00000000  0.00000000  0.00000000       0.021
   0.03711358  0.00000000  0.00000000       0.042
   0.07422716  0.00000000  0.00000000       0.021
   0.00000000  0.03801895 -0.01200128       0.042
   0.03711358  0.03801895 -0.01200128       0.083
   0.07422716  0.03801895 -0.01200128       0.042
   0.00000000  0.07603789 -0.02400256       0.021
   0.03711358  0.07603789 -0.02400256       0.042
   0.07422716  0.07603789 -0.02400256       0.021
   0.00000000  0.00000000  0.04015358       0.042
   0.03711358  0.00000000  0.04015358       0.083
   0.07422716  0.00000000  0.04015358       0.042
   0.00000000  0.03801895  0.02815230       0.042
   0.03711358  0.03801895  0.02815230       0.083
   0.07422716  0.03801895  0.02815230       0.042
   0.00000000  0.07603789  0.01615102       0.042
   0.03711358  0.07603789  0.01615102       0.083
   0.07422716  0.07603789  0.01615102       0.042
   0.00000000 -0.03801895  0.05215486       0.042
   0.03711358 -0.03801895  0.05215486       0.083
   0.07422716 -0.03801895  0.05215486       0.042
 
 k-points in reciprocal lattice and weights: Kpoints from vasprun.xml                
   0.00000000  0.00000000  0.00000000       0.021
   0.25000000  0.00000000  0.00000000       0.042
   0.50000000  0.00000000  0.00000000       0.021
   0.00000000  0.25000000  0.00000000       0.042
   0.25000000  0.25000000  0.00000000       0.083
   0.50000000  0.25000000  0.00000000       0.042
   0.00000000  0.50000000  0.00000000       0.021
   0.25000000  0.50000000  0.00000000       0.042
   0.50000000  0.50000000  0.00000000       0.021
   0.00000000  0.00000000  0.33333333       0.042
   0.25000000  0.00000000  0.33333333       0.083
   0.50000000  0.00000000  0.33333333       0.042
   0.00000000  0.25000000  0.33333333       0.042
   0.25000000  0.25000000  0.33333333       0.083
   0.50000000  0.25000000  0.33333333       0.042
   0.00000000  0.50000000  0.33333333       0.042
   0.25000000  0.50000000  0.33333333       0.083
   0.50000000  0.50000000  0.33333333       0.042
   0.00000000 -0.25000000  0.33333333       0.042
   0.25000000 -0.25000000  0.33333333       0.083
   0.50000000 -0.25000000  0.33333333       0.042
 
 position of ions in fractional coordinates (direct lattice) 
   0.30831600  0.22831000  0.06669600
   0.80831600  0.77169000  0.93330400
   0.77411300  0.73520400  0.44544000
   0.27411300  0.26479600  0.55456000
   0.32471200  0.71735200  0.67745600
   0.82471200  0.28264800  0.32254400
   0.87907800  0.08088500  0.56187500
   0.32632700  0.91074100  0.83244100
   0.05262500  0.51932700  0.27579200
   0.55925900  0.46755200  0.29855700
   0.37907800  0.91911500  0.43812500
   0.05925900  0.53244800  0.70144300
   0.82632700  0.08925900  0.16755900
   0.55262500  0.48067300  0.72420800
 
 position of ions in cartesian coordinates  (Angst):
   2.07684093  1.67606699  0.55367418
   5.44488043  7.52008901  7.74778582
   5.21448632  6.00172788  3.69780234
   1.84644682  3.19442812  4.60365766
   2.18728568  6.49233395  5.62387389
   5.55532518  2.70382205  2.67758611
   5.92153886  2.00425912  4.66438284
   2.19816445  8.17013218  6.91047566
   0.35448616  4.13763181  2.28947626
   3.76721281  3.85683193  2.47845899
   2.55349936  7.19189688  3.63707716
   0.39917331  5.33932407  5.82300101
   5.56620395  1.02602382  1.39098434
   3.72252566  5.05852419  6.01198374
 


--------------------------------------------------------------------------------------------------------


 k-point   1 :   0.0000 0.0000 0.0000  plane waves:    9907
 k-point   2 :   0.2500 0.0000 0.0000  plane waves:    9893
 k-point   3 :   0.5000 0.0000 0.0000  plane waves:    9842
 k-point   4 :   0.0000 0.2500 0.0000  plane waves:    9903
 k-point   5 :   0.2500 0.2500 0.0000  plane waves:    9920
 k-point   6 :   0.5000 0.2500 0.0000  plane waves:    9882
 k-point   7 :   0.0000 0.5000 0.0000  plane waves:    9908
 k-point   8 :   0.2500 0.5000 0.0000  plane waves:    9900
 k-point   9 :   0.5000 0.5000 0.0000  plane waves:    9908
 k-point  10 :   0.0000 0.0000 0.3333  plane waves:    9939
 k-point  11 :   0.2500 0.0000 0.3333  plane waves:    9918
 k-point  12 :   0.5000 0.0000 0.3333  plane waves:    9882
 k-point  13 :   0.0000 0.2500 0.3333  plane waves:    9903
 k-point  14 :   0.2500 0.2500 0.3333  plane waves:    9883
 k-point  15 :   0.5000 0.2500 0.3333  plane waves:    9892
 k-point  16 :   0.0000 0.5000 0.3333  plane waves:    9893
 k-point  17 :   0.2500 0.5000 0.3333  plane waves:    9902
 k-point  18 :   0.5000 0.5000 0.3333  plane waves:    9892
 k-point  19 :   0.0000-0.2500 0.3333  plane waves:    9899
 k-point  20 :   0.2500-0.2500 0.3333  plane waves:    9897
 k-point  21 :   0.5000-0.2500 0.3333  plane waves:    9888

 maximum and minimum number of plane-waves per node :      9939     9842

 maximum number of plane-waves:      9939
 maximum index in each direction: 
   IXMAX=   12   IYMAX=   12   IZMAX=   16
   IXMIN=  -13   IYMIN=  -12   IZMIN=  -16


 serial   3D FFT for wavefunctions
 parallel 3D FFT for charge:
    minimum data exchange during FFTs selected (reduces bandwidth)


 total amount of memory used by VASP MPI-rank0   270837. kBytes
=======================================================================

   base      :      30000. kBytes
   nonlr-proj:      10190. kBytes
   fftplans  :      52081. kBytes
   grid      :      48080. kBytes
   one-center:       1376. kBytes
   wavefun   :     129110. kBytes
 
     INWAV:  cpu time      0.0003: real time      0.0007
 Broyden mixing: mesh for mixing (old mesh)
   NGX = 25   NGY = 25   NGZ = 33
  (NGX  =100   NGY  =100   NGZ  =140)
  gives a total of  20625 points

 charge density for first step will be calculated from the start-wavefunctions


--------------------------------------------------------------------------------------------------------


 Maximum index for non-local projection operator          8339
 Maximum index for augmentation-charges         52781 (set IRDMAX)


--------------------------------------------------------------------------------------------------------


 initial charge from wavefunction
 First call to EWALD:  gamma=   0.247
 Maximum number of real-space cells 3x 3x 2
 Maximum number of reciprocal cells 3x 3x 3

    FEWALD:  cpu time      0.0018: real time      0.0018


--------------------------------------- Iteration      1(   1)  ---------------------------------------


    POTLOK:  cpu time      0.1193: real time      0.2149
    SETDIJ:  cpu time      1.5018: real time      1.5031
     EDDAV:  cpu time      5.0757: real time      5.0807
 BZINTS: Fermi energy:   -6.187819;  108.000000 electrons
         Band energy:-0.756607E+04;  BLOECHL correction:   -2.130266
       DOS:  cpu time      0.1154: real time      0.1154
    --------------------------------------------
      LOOP:  cpu time      6.8122: real time      6.9142

 eigenvalue-minimisations  : 11072
 total energy-change (2. order) :-0.3882812E+04  (-0.9913650E+04)
 number of electron     108.0000000 magnetization       0.0000000
 augmentation part        4.6774240 magnetization       0.0211150

 Free energy of the ion-electron system (eV)
  ---------------------------------------------------
  alpha Z        PSCENC =       321.16261352
  Ewald energy   TEWEN  =     -5906.00341000
  -Hartree energ DENC   =      -134.72978210
  -exchange      EXHF   =         0.00000000
  -V(xc)+E(xc)   XCENC  =       204.64771689
  PAW double counting   =    339925.34834723  -339937.49582248
  entropy T*S    EENTRO =         0.00000000
  eigenvalues    EBANDS =     -7566.06992321
  atomic energy  EATOM  =      9210.32860505
  Solvation  Ediel_sol  =         0.00000000
  ---------------------------------------------------
  free energy    TOTEN  =     -3882.81165511 eV

  energy without entropy =    -3882.81165511  energy(sigma->0) =    -3882.81165511


--------------------------------------------------------------------------------------------------------




--------------------------------------- Iteration      1(   2)  ---------------------------------------


     EDDAV:  cpu time      3.7552: real time      3.7572
 BZINTS: Fermi energy:  -27.198442;  108.000000 electrons
         Band energy:-0.989872E+04;  BLOECHL correction:   -0.480394
       DOS:  cpu time      0.0917: real time      0.0918
    --------------------------------------------
      LOOP:  cpu time      3.8470: real time      3.8489

 eigenvalue-minimisations  :  7668
 total energy-change (2. order) :-0.2332649E+04  (-0.2234684E+04)
 number of electron     108.0000000 magnetization       0.0000000
 augmentation part        4.6774240 magnetization       0.0211150

 Free energy of the ion-electron system (eV)
  ---------------------------------------------------
  alpha Z        PSCENC =       321.16261352
  Ewald energy   TEWEN  =     -5906.00341000
  -Hartree energ DENC   =      -134.72978210
  -exchange      EXHF   =         0.00000000
  -V(xc)+E(xc)   XCENC  =       204.64771689
  PAW double counting   =    339925.34834723  -339937.49582248
  entropy T*S    EENTRO =         0.00000000
  eigenvalues    EBANDS =     -9898.71936520
  atomic energy  EATOM  =      9210.32860505
  Solvation  Ediel_sol  =         0.00000000
  ---------------------------------------------------
  free energy    TOTEN  =     -6215.46109710 eV

  energy without entropy =    -6215.46109710  energy(sigma->0) =    -6215.46109710


--------------------------------------------------------------------------------------------------------




--------------------------------------- Iteration      1(   3)  ---------------------------------------


     EDDAV:  cpu time      4.6459: real time      4.6485
 BZINTS: Fermi energy:  -30.978976;  108.000000 electrons
         Band energy:-0.103457E+05;  BLOECHL correction:   -0.028564
       DOS:  cpu time      0.0822: real time      0.0823
    --------------------------------------------
      LOOP:  cpu time      4.7282: real time      4.7307

 eigenvalue-minimisations  : 10032
 total energy-change (2. order) :-0.4469503E+03  (-0.4253383E+03)
 number of electron     108.0000000 magnetization       0.0000000
 augmentation part        4.6774240 magnetization       0.0211150

 Free energy of the ion-electron system (eV)
  ---------------------------------------------------
  alpha Z        PSCENC =       321.16261352
  Ewald energy   TEWEN  =     -5906.00341000
  -Hartree energ DENC   =      -134.72978210
  -exchange      EXHF   =         0.00000000
  -V(xc)+E(xc)   XCENC  =       204.64771689
  PAW double counting   =    339925.34834723  -339937.49582248
  entropy T*S    EENTRO =         0.00000000
  eigenvalues    EBANDS =    -10345.66968088
  atomic energy  EATOM  =      9210.32860505
  Solvation  Ediel_sol  =         0.00000000
  ---------------------------------------------------
  free energy    TOTEN  =     -6662.41141277 eV

  energy without entropy =    -6662.41141277  energy(sigma->0) =    -6662.41141277


--------------------------------------------------------------------------------------------------------




--------------------------------------- Iteration      1(   4)  ---------------------------------------


     EDDAV:  cpu time      5.2721: real time      5.2753
 BZINTS: Fermi energy:  -31.431167;  108.000000 electrons
         Band energy:-0.106371E+05;  BLOECHL correction:   -0.041781
       DOS:  cpu time      0.0830: real time      0.0830
    --------------------------------------------
      LOOP:  cpu time      5.3551: real time      5.3584

 eigenvalue-minimisations  : 11552
 total energy-change (2. order) :-0.2913912E+03  (-0.2805610E+03)
 number of electron     108.0000000 magnetization       0.0000000
 augmentation part        4.6774240 magnetization       0.0211150

 Free energy of the ion-electron system (eV)
  ---------------------------------------------------
  alpha Z        PSCENC =       321.16261352
  Ewald energy   TEWEN  =     -5906.00341000
  -Hartree energ DENC   =      -134.72978210
  -exchange      EXHF   =         0.00000000
  -V(xc)+E(xc)   XCENC  =       204.64771689
  PAW double counting   =    339925.34834723  -339937.49582248
  entropy T*S    EENTRO =         0.00000000
  eigenvalues    EBANDS =    -10637.06087664
  atomic energy  EATOM  =      9210.32860505
  Solvation  Ediel_sol  =         0.00000000
  ---------------------------------------------------
  free energy    TOTEN  =     -6953.80260853 eV

  energy without entropy =    -6953.80260853  energy(sigma->0) =    -6953.80260853


--------------------------------------------------------------------------------------------------------




--------------------------------------- Iteration      1(   5)  ---------------------------------------


     EDDAV:  cpu time      4.7092: real time      4.7122
 BZINTS: Fermi energy:  -32.089180;  108.000000 electrons
         Band energy:-0.107357E+05;  BLOECHL correction:   -0.133361
       DOS:  cpu time      0.0799: real time      0.0799
    CHARGE:  cpu time      0.2281: real time      0.2282
    MIXING:  cpu time      0.0032: real time      0.0032
    --------------------------------------------
      LOOP:  cpu time      5.0204: real time      5.0235

 eigenvalue-minimisations  : 10068
 total energy-change (2. order) :-0.9861477E+02  (-0.9283690E+02)
 number of electron     108.0000000 magnetization      -0.0319913
 augmentation part       -8.0899914 magnetization       0.0410579

 Broyden mixing:
  rms(total) = 0.77523E+02    rms(broyden)= 0.77519E+02
  rms(prec ) = 0.93303E+02
  weight for this iteration     100.00

 Free energy of the ion-electron system (eV)
  ---------------------------------------------------
  alpha Z        PSCENC =       321.16261352
  Ewald energy   TEWEN  =     -5906.00341000
  -Hartree energ DENC   =      -134.72978210
  -exchange      EXHF   =         0.00000000
  -V(xc)+E(xc)   XCENC  =       204.64771689
  PAW double counting   =    339925.34834723  -339937.49582248
  entropy T*S    EENTRO =         0.00000000
  eigenvalues    EBANDS =    -10735.67564783
  atomic energy  EATOM  =      9210.32860505
  Solvation  Ediel_sol  =         0.00000000
  ---------------------------------------------------
  free energy    TOTEN  =     -7052.41737973 eV

  energy without entropy =    -7052.41737973  energy(sigma->0) =    -7052.41737973


--------------------------------------------------------------------------------------------------------




--------------------------------------- Iteration      1(   6)  ---------------------------------------


    POTLOK:  cpu time      0.0103: real time      0.0110
    SETDIJ:  cpu time      1.4956: real time      1.4962
     EDDAV:  cpu time      4.9773: real time      4.9797
 BZINTS: Fermi energy:    0.910759;  108.000000 electrons
         Band energy:-0.210421E+04;  BLOECHL correction:   -0.047300
       DOS:  cpu time      0.0922: real time      0.0922
    CHARGE:  cpu time      0.2242: real time      0.2244
    MIXING:  cpu time      0.0036: real time      0.0064
    --------------------------------------------
      LOOP:  cpu time      6.8032: real time      6.8099

 eigenvalue-minimisations  : 10868
 total energy-change (2. order) : 0.5898103E+04  (-0.2584505E+04)
 number of electron     108.0000000 magnetization      -0.0327702
 augmentation part       -4.7907120 magnetization       0.0036203

 Broyden mixing:
  rms(total) = 0.73108E+02    rms(broyden)= 0.73105E+02
  rms(prec ) = 0.75914E+02
  weight for this iteration     100.00

 eigenvalues of (default mixing * dielectric matrix)
  average eigenvalue GAMMA=   0.5211
  0.5211

 Free energy of the ion-electron system (eV)
  ---------------------------------------------------
  alpha Z        PSCENC =       321.16261352
  Ewald energy   TEWEN  =     -5906.00341000
  -Hartree energ DENC   =     -2976.01418218
  -exchange      EXHF   =         0.00000000
  -V(xc)+E(xc)   XCENC  =       307.32948433
  PAW double counting   =    195901.50846335  -195908.41588879
  entropy T*S    EENTRO =         0.00000000
  eigenvalues    EBANDS =     -2104.21028062
  atomic energy  EATOM  =      9210.32860505
  Solvation  Ediel_sol  =         0.00000000
  ---------------------------------------------------
  free energy    TOTEN  =     -1154.31459534 eV

  energy without entropy =    -1154.31459534  energy(sigma->0) =    -1154.31459534


--------------------------------------------------------------------------------------------------------




--------------------------------------- Iteration      1(   7)  ---------------------------------------


    POTLOK:  cpu time      0.0102: real time      0.0106
    SETDIJ:  cpu time      1.4863: real time      1.4868
     EDDAV:  cpu time      4.2263: real time      4.2280
 BZINTS: Fermi energy:   -4.036613;  108.000000 electrons
         Band energy:-0.214030E+04;  BLOECHL correction:   -0.187283
       DOS:  cpu time      0.1080: real time      0.1080
    CHARGE:  cpu time      0.2260: real time      0.2261
    MIXING:  cpu time      0.0045: real time      0.0045
    --------------------------------------------
      LOOP:  cpu time      6.0613: real time      6.0640

 eigenvalue-minimisations  :  9064
 total energy-change (2. order) : 0.5228472E+03  (-0.3338220E+03)
 number of electron     108.0000000 magnetization       0.0547856
 augmentation part        1.2243745 magnetization      -0.2987224

 Broyden mixing:
  rms(total) = 0.28637E+02    rms(broyden)= 0.28637E+02
  rms(prec ) = 0.31868E+02
  weight for this iteration     100.00

 eigenvalues of (default mixing * dielectric matrix)
  average eigenvalue GAMMA=   0.6875
  0.6875  0.6875

 Free energy of the ion-electron system (eV)
  ---------------------------------------------------
  alpha Z        PSCENC =       321.16261352
  Ewald energy   TEWEN  =     -5906.00341000
  -Hartree energ DENC   =     -2422.39077175
  -exchange      EXHF   =         0.00000000
  -V(xc)+E(xc)   XCENC  =       287.67029709
  PAW double counting   =    177322.04056188  -177303.97831124
  entropy T*S    EENTRO =         0.00000000
  eigenvalues    EBANDS =     -2140.29698760
  atomic energy  EATOM  =      9210.32860505
  Solvation  Ediel_sol  =         0.00000000
  ---------------------------------------------------
  free energy    TOTEN  =      -631.46740305 eV

  energy without entropy =     -631.46740305  energy(sigma->0) =     -631.46740305


--------------------------------------------------------------------------------------------------------




--------------------------------------- Iteration      1(   8)  ---------------------------------------


    POTLOK:  cpu time      0.0097: real time      0.0108
    SETDIJ:  cpu time      1.4879: real time      1.4886
     EDDAV:  cpu time      4.4500: real time      4.4517
 BZINTS: Fermi energy:   -9.263602;  108.000000 electrons
         Band energy:-0.198433E+04;  BLOECHL correction:   -0.026569
       DOS:  cpu time      0.0832: real time      0.0832
    CHARGE:  cpu time      0.2226: real time      0.2227
    MIXING:  cpu time      0.0034: real time      0.0034
    --------------------------------------------
      LOOP:  cpu time      6.2567: real time      6.2604

 eigenvalue-minimisations  :  9436
 total energy-change (2. order) : 0.1774830E+03  (-0.1601294E+03)
 number of electron     108.0000001 magnetization       0.0085291
 augmentation part       21.0217818 magnetization      -0.0789861

 Broyden mixing:
  rms(total) = 0.36873E+02    rms(broyden)= 0.36873E+02
  rms(prec ) = 0.39205E+02
  weight for this iteration     100.00

 eigenvalues of (default mixing * dielectric matrix)
  average eigenvalue GAMMA=   0.7790
  0.9508  0.6931  0.6931

 Free energy of the ion-electron system (eV)
  ---------------------------------------------------
  alpha Z        PSCENC =       321.16261352
  Ewald energy   TEWEN  =     -5906.00341000
  -Hartree energ DENC   =     -2341.84996556
  -exchange      EXHF   =         0.00000000
  -V(xc)+E(xc)   XCENC  =       285.76486998
  PAW double counting   =    120145.93405570  -120184.99096782
  entropy T*S    EENTRO =         0.00000000
  eigenvalues    EBANDS =     -1984.33016673
  atomic energy  EATOM  =      9210.32860505
  Solvation  Ediel_sol  =         0.00000000
  ---------------------------------------------------
  free energy    TOTEN  =      -453.98436585 eV

  energy without entropy =     -453.98436585  energy(sigma->0) =     -453.98436585


--------------------------------------------------------------------------------------------------------




--------------------------------------- Iteration      1(   9)  ---------------------------------------


    POTLOK:  cpu time      0.0097: real time      0.0107
    SETDIJ:  cpu time      1.4838: real time      1.4843
     EDDAV:  cpu time      4.6060: real time      4.6099
 BZINTS: Fermi energy:    2.777816;  108.000000 electrons
         Band energy:-0.122876E+04;  BLOECHL correction:   -0.060854
       DOS:  cpu time      0.0922: real time      0.0922
    CHARGE:  cpu time      0.2251: real time      0.2252
    MIXING:  cpu time      0.0035: real time      0.0035
    --------------------------------------------
      LOOP:  cpu time      6.4202: real time      6.4258

 eigenvalue-minimisations  :  9768
 total energy-change (2. order) :-0.4524973E+03  (-0.9337825E+03)
 number of electron     108.0000000 magnetization      -0.0611873
 augmentation part       -7.7119336 magnetization      -0.1280606

 Broyden mixing:
  rms(total) = 0.39943E+02    rms(broyden)= 0.39943E+02
  rms(prec ) = 0.42891E+02
  weight for this iteration     100.00

 eigenvalues of (default mixing * dielectric matrix)
  average eigenvalue GAMMA=   0.8992
  1.2287  1.2287  0.6765  0.4631

 Free energy of the ion-electron system (eV)
  ---------------------------------------------------
  alpha Z        PSCENC =       321.16261352
  Ewald energy   TEWEN  =     -5906.00341000
  -Hartree energ DENC   =     -3221.06170027
  -exchange      EXHF   =         0.00000000
  -V(xc)+E(xc)   XCENC  =       312.46798833
  PAW double counting   =     83658.79101947   -84053.40366780
  entropy T*S    EENTRO =         0.00000000
  eigenvalues    EBANDS =     -1228.76307214
  atomic energy  EATOM  =      9210.32860505
  Solvation  Ediel_sol  =         0.00000000
  ---------------------------------------------------
  free energy    TOTEN  =      -906.48162383 eV

  energy without entropy =     -906.48162383  energy(sigma->0) =     -906.48162383


--------------------------------------------------------------------------------------------------------




--------------------------------------- Iteration      1(  10)  ---------------------------------------


    POTLOK:  cpu time      0.0104: real time      0.0111
    SETDIJ:  cpu time      1.4997: real time      1.5007
     EDDAV:  cpu time      5.0148: real time      5.0194
 BZINTS: Fermi energy:    1.311425;  108.000000 electrons
         Band energy:-0.125749E+04;  BLOECHL correction:   -0.027433
       DOS:  cpu time      0.0836: real time      0.0837
    CHARGE:  cpu time      0.2230: real time      0.2231
    MIXING:  cpu time      0.0038: real time      0.0038
    --------------------------------------------
      LOOP:  cpu time      6.8354: real time      6.8418

 eigenvalue-minimisations  : 10928
 total energy-change (2. order) : 0.4472259E+03  (-0.4878505E+02)
 number of electron     108.0000000 magnetization      -0.0151203
 augmentation part       -7.3860464 magnetization      -0.1373327

 Broyden mixing:
  rms(total) = 0.27120E+02    rms(broyden)= 0.27120E+02
  rms(prec ) = 0.30181E+02
  weight for this iteration     100.00

 eigenvalues of (default mixing * dielectric matrix)
  average eigenvalue GAMMA=   1.1500
  1.8943  1.8943  0.8663  0.5475  0.5475

 Free energy of the ion-electron system (eV)
  ---------------------------------------------------
  alpha Z        PSCENC =       321.16261352
  Ewald energy   TEWEN  =     -5906.00341000
  -Hartree energ DENC   =     -2816.92246135
  -exchange      EXHF   =         0.00000000
  -V(xc)+E(xc)   XCENC  =       302.17603602
  PAW double counting   =     62386.81844512   -62699.32253566
  entropy T*S    EENTRO =         0.00000000
  eigenvalues    EBANDS =     -1257.49304630
  atomic energy  EATOM  =      9210.32860505
  Solvation  Ediel_sol  =         0.00000000
  ---------------------------------------------------
  free energy    TOTEN  =      -459.25575359 eV

  energy without entropy =     -459.25575359  energy(sigma->0) =     -459.25575359


--------------------------------------------------------------------------------------------------------




--------------------------------------- Iteration      1(  11)  ---------------------------------------


    POTLOK:  cpu time      0.0099: real time      0.0107
    SETDIJ:  cpu time      1.4876: real time      1.4881
     EDDAV:  cpu time      5.1921: real time      5.1951
 BZINTS: Fermi energy:   -0.595837;  108.000000 electrons
         Band energy:-0.125545E+04;  BLOECHL correction:   -0.034305
       DOS:  cpu time      0.0878: real time      0.0879
    CHARGE:  cpu time      0.2255: real time      0.2257
    MIXING:  cpu time      0.0038: real time      0.0038
    --------------------------------------------
      LOOP:  cpu time      7.0066: real time      7.0112

 eigenvalue-minimisations  : 11296
 total energy-change (2. order) : 0.2115872E+03  (-0.3371959E+03)
 number of electron     108.0000001 magnetization      -0.0568867
 augmentation part       24.0220011 magnetization       0.0916898

 Broyden mixing:
  rms(total) = 0.12378E+02    rms(broyden)= 0.12378E+02
  rms(prec ) = 0.20420E+02
  weight for this iteration     100.00

 eigenvalues of (default mixing * dielectric matrix)
  average eigenvalue GAMMA=   1.0312
  1.8845  1.8845  0.8490  0.5554  0.5069  0.5069

 Free energy of the ion-electron system (eV)
  ---------------------------------------------------
  alpha Z        PSCENC =       321.16261352
  Ewald energy   TEWEN  =     -5906.00341000
  -Hartree energ DENC   =     -2653.08371860
  -exchange      EXHF   =         0.00000000
  -V(xc)+E(xc)   XCENC  =       305.72921339
  PAW double counting   =     22666.14011427   -22936.49029571
  entropy T*S    EENTRO =         0.00000000
  eigenvalues    EBANDS =     -1255.45162894
  atomic energy  EATOM  =      9210.32860505
  Solvation  Ediel_sol  =         0.00000000
  ---------------------------------------------------
  free energy    TOTEN  =      -247.66850703 eV

  energy without entropy =     -247.66850703  energy(sigma->0) =     -247.66850703


--------------------------------------------------------------------------------------------------------




--------------------------------------- Iteration      1(  12)  ---------------------------------------


    POTLOK:  cpu time      0.0097: real time      0.0108
    SETDIJ:  cpu time      1.5002: real time      1.5012
     EDDAV:  cpu time      4.6359: real time      4.6399
 BZINTS: Fermi energy:    5.286944;  108.000000 electrons
         Band energy:-0.791859E+03;  BLOECHL correction:   -0.008834
       DOS:  cpu time      0.0790: real time      0.0791
    CHARGE:  cpu time      0.2239: real time      0.2240
    MIXING:  cpu time      0.0043: real time      0.0043
    --------------------------------------------
      LOOP:  cpu time      6.4530: real time      6.4593

 eigenvalue-minimisations  :  9808
 total energy-change (2. order) : 0.1323931E+03  (-0.8803232E+02)
 number of electron     108.0000000 magnetization      -0.0255868
 augmentation part       -4.4530203 magnetization      -0.0529915

 Broyden mixing:
  rms(total) = 0.12175E+02    rms(broyden)= 0.12175E+02
  rms(prec ) = 0.14173E+02
  weight for this iteration     100.00

 eigenvalues of (default mixing * dielectric matrix)
  average eigenvalue GAMMA=   0.9241
  1.9044  1.9044  0.8846  0.5669  0.5669  0.3786  0.2629

 Free energy of the ion-electron system (eV)
  ---------------------------------------------------
  alpha Z        PSCENC =       321.16261352
  Ewald energy   TEWEN  =     -5906.00341000
  -Hartree energ DENC   =     -2904.42843705
  -exchange      EXHF   =         0.00000000
  -V(xc)+E(xc)   XCENC  =       312.50331497
  PAW double counting   =     20756.50484032   -21113.48430764
  entropy T*S    EENTRO =         0.00000000
  eigenvalues    EBANDS =      -791.85865063
  atomic energy  EATOM  =      9210.32860505
  Solvation  Ediel_sol  =         0.00000000
  ---------------------------------------------------
  free energy    TOTEN  =      -115.27543146 eV

  energy without entropy =     -115.27543146  energy(sigma->0) =     -115.27543146


--------------------------------------------------------------------------------------------------------




--------------------------------------- Iteration      1(  13)  ---------------------------------------


    POTLOK:  cpu time      0.0099: real time      0.0107
    SETDIJ:  cpu time      1.4908: real time      1.4915
     EDDAV:  cpu time      4.2224: real time      4.2252
 BZINTS: Fermi energy:    0.023141;  108.000000 electrons
         Band energy:-0.102783E+04;  BLOECHL correction:   -0.057875
       DOS:  cpu time      0.0840: real time      0.0841
    CHARGE:  cpu time      0.2220: real time      0.2221
    MIXING:  cpu time      0.0038: real time      0.0038
    --------------------------------------------
      LOOP:  cpu time      6.0329: real time      6.0374

 eigenvalue-minimisations  :  8848
 total energy-change (2. order) :-0.6511189E+02  (-0.2294203E+02)
 number of electron     108.0000001 magnetization      -0.0353174
 augmentation part       21.8483046 magnetization       0.0906969

 Broyden mixing:
  rms(total) = 0.12013E+02    rms(broyden)= 0.12013E+02
  rms(prec ) = 0.17941E+02
  weight for this iteration     100.00

 eigenvalues of (default mixing * dielectric matrix)
  average eigenvalue GAMMA=   0.8412
  1.8826  1.8826  0.8769  0.5342  0.5342  0.4686  0.2752  0.2752

 Free energy of the ion-electron system (eV)
  ---------------------------------------------------
  alpha Z        PSCENC =       321.16261352
  Ewald energy   TEWEN  =     -5906.00341000
  -Hartree energ DENC   =     -2812.94769937
  -exchange      EXHF   =         0.00000000
  -V(xc)+E(xc)   XCENC  =       309.74812925
  PAW double counting   =     17108.09704269   -17382.93923454
  entropy T*S    EENTRO =         0.00000000
  eigenvalues    EBANDS =     -1027.83336804
  atomic energy  EATOM  =      9210.32860505
  Solvation  Ediel_sol  =         0.00000000
  ---------------------------------------------------
  free energy    TOTEN  =      -180.38732143 eV

  energy without entropy =     -180.38732143  energy(sigma->0) =     -180.38732143


--------------------------------------------------------------------------------------------------------




--------------------------------------- Iteration      1(  14)  ---------------------------------------


    POTLOK:  cpu time      0.0101: real time      0.0108
    SETDIJ:  cpu time      1.4882: real time      1.4889
     EDDAV:  cpu time      4.6602: real time      4.6633
 BZINTS: Fermi energy:    2.829211;  108.000000 electrons
         Band energy:-0.791190E+03;  BLOECHL correction:    0.000000
       DOS:  cpu time      0.0454: real time      0.0454
    CHARGE:  cpu time      0.2252: real time      0.2253
    MIXING:  cpu time      0.0039: real time      0.0039
    --------------------------------------------
      LOOP:  cpu time      6.4330: real time      6.4376

 eigenvalue-minimisations  :  9920
 total energy-change (2. order) : 0.9254388E+02  (-0.9360525E+01)
 number of electron     108.0000000 magnetization      -0.0242918
 augmentation part        6.7755682 magnetization       0.0317104

 Broyden mixing:
  rms(total) = 0.10644E+02    rms(broyden)= 0.10644E+02
  rms(prec ) = 0.11136E+02
  weight for this iteration     100.00

 eigenvalues of (default mixing * dielectric matrix)
  average eigenvalue GAMMA=   0.8212
  1.8622  1.8622  0.9191  0.5070  0.5070  0.5244  0.5244  0.4837  0.2011

 Free energy of the ion-electron system (eV)
  ---------------------------------------------------
  alpha Z        PSCENC =       321.16261352
  Ewald energy   TEWEN  =     -5906.00341000
  -Hartree energ DENC   =     -2920.00005400
  -exchange      EXHF   =         0.00000000
  -V(xc)+E(xc)   XCENC  =       313.06617902
  PAW double counting   =     16733.92743546   -17049.13525914
  entropy T*S    EENTRO =         0.00000000
  eigenvalues    EBANDS =      -791.18954865
  atomic energy  EATOM  =      9210.32860505
  Solvation  Ediel_sol  =         0.00000000
  ---------------------------------------------------
  free energy    TOTEN  =       -87.84343874 eV

  energy without entropy =      -87.84343874  energy(sigma->0) =      -87.84343874


--------------------------------------------------------------------------------------------------------




--------------------------------------- Iteration      1(  15)  ---------------------------------------


    POTLOK:  cpu time      0.0101: real time      0.0105
    SETDIJ:  cpu time      1.4880: real time      1.4886
     EDDAV:  cpu time      4.7073: real time      4.7105
 BZINTS: Fermi energy:    5.155978;  108.000000 electrons
         Band energy:-0.720063E+03;  BLOECHL correction:    0.000000
       DOS:  cpu time      0.0452: real time      0.0452
    CHARGE:  cpu time      0.2255: real time      0.2258
    MIXING:  cpu time      0.0054: real time      0.0054
    --------------------------------------------
      LOOP:  cpu time      6.4815: real time      6.4860

 eigenvalue-minimisations  : 10152
 total energy-change (2. order) :-0.3317702E+02  (-0.1062740E+02)
 number of electron     108.0000000 magnetization      -0.0248800
 augmentation part       -3.0310619 magnetization       0.0851306

 Broyden mixing:
  rms(total) = 0.11118E+02    rms(broyden)= 0.11118E+02
  rms(prec ) = 0.12720E+02
  weight for this iteration     100.00

 eigenvalues of (default mixing * dielectric matrix)
  average eigenvalue GAMMA=   0.8101
  2.2202  1.4756  0.9470  0.6963  0.6963  0.5119  0.5119  0.4229  0.3094  0.3094

 Free energy of the ion-electron system (eV)
  ---------------------------------------------------
  alpha Z        PSCENC =       321.16261352
  Ewald energy   TEWEN  =     -5906.00341000
  -Hartree energ DENC   =     -3001.38680732
  -exchange      EXHF   =         0.00000000
  -V(xc)+E(xc)   XCENC  =       317.64905003
  PAW double counting   =     14494.28727158   -14836.99429957
  entropy T*S    EENTRO =         0.00000000
  eigenvalues    EBANDS =      -720.06347792
  atomic energy  EATOM  =      9210.32860505
  Solvation  Ediel_sol  =         0.00000000
  ---------------------------------------------------
  free energy    TOTEN  =      -121.02045464 eV

  energy without entropy =     -121.02045464  energy(sigma->0) =     -121.02045464


--------------------------------------------------------------------------------------------------------




--------------------------------------- Iteration      1(  16)  ---------------------------------------


    POTLOK:  cpu time      0.0101: real time      0.0106
    SETDIJ:  cpu time      1.4927: real time      1.4933
     EDDAV:  cpu time      5.1877: real time      5.1899
 BZINTS: Fermi energy:    5.722543;  108.000000 electrons
         Band energy:-0.696872E+03;  BLOECHL correction:   -0.020814
       DOS:  cpu time      0.0738: real time      0.0738
    CHARGE:  cpu time      0.2244: real time      0.2245
    MIXING:  cpu time      0.0050: real time      0.0050
    --------------------------------------------
      LOOP:  cpu time      6.9937: real time      6.9971

 eigenvalue-minimisations  : 11392
 total energy-change (2. order) :-0.9701073E+01  (-0.1605704E+01)
 number of electron     108.0000000 magnetization      -0.2049040
 augmentation part       -5.8458591 magnetization      -0.0124310

 Broyden mixing:
  rms(total) = 0.10694E+02    rms(broyden)= 0.10694E+02
  rms(prec ) = 0.13323E+02
  weight for this iteration     100.00

 eigenvalues of (default mixing * dielectric matrix)
  average eigenvalue GAMMA=   0.8475
  2.2349  1.0419  1.0419  1.2282  0.9017  0.5632  0.5632  0.5675  0.4697  0.4697
  0.2407

 Free energy of the ion-electron system (eV)
  ---------------------------------------------------
  alpha Z        PSCENC =       321.16261352
  Ewald energy   TEWEN  =     -5906.00341000
  -Hartree energ DENC   =     -3035.99684908
  -exchange      EXHF   =         0.00000000
  -V(xc)+E(xc)   XCENC  =       318.49884660
  PAW double counting   =     12883.44293026   -13225.28189332
  entropy T*S    EENTRO =         0.00000000
  eigenvalues    EBANDS =      -696.87237037
  atomic energy  EATOM  =      9210.32860505
  Solvation  Ediel_sol  =         0.00000000
  ---------------------------------------------------
  free energy    TOTEN  =      -130.72152735 eV

  energy without entropy =     -130.72152735  energy(sigma->0) =     -130.72152735


--------------------------------------------------------------------------------------------------------




[...]
  288          m_sumb_d                              0.000158                          2   4
  289        strnlr                                1.521497                            1   3
  290          rspher_all                            0.082982                          9   4
  291          phaser                                0.402734                        189   4
  292          rpro_isp                              1.029797                        189   4
  293            fftwav_mpi                            0.226752                     7182   5
  294              fftwav                                0.218112                   7182   6
  295                fft3d                                 0.047946                 7182   7
  296            rpromu_acc                            0.360991                     1890   5
  297          m_sumb_d                              0.000010                          1   4
  298        fft3d_mpi                             0.004236                           22   3
  299          fftbrc_mpi                            0.003470                         22   4
  300            fftbas_plan_mpi                       0.003459                       22   5
  301              map_forward                           0.001114                     20   6
  302                map_gather                            0.000237                   10   7
  303                m_alltoallv_z                         0.000134                   10   7
  304                map_scatter                           0.000572                   10   7
  305              map_backward                          0.001725                     24   6
  306                map_gather                            0.000307                   12   7
  307                m_alltoallv_z                         0.000133                   12   7
  308                map_scatter                           0.001073                   12   7
  309        m_sumb_d                              0.000033                            5   3
  310        forhar                                0.002670                            2   3
  311          m_sumb_d                              0.000049                          2   4
  312        strehar                               0.001789                            1   3
  313          m_sumb_d                              0.000010                          1   4
  314        chggra                                0.000835                            1   3
  315          fft3d_mpi                             0.000498                          3   4
  316            fftbrc_mpi                            0.000393                        3   5
  317              fftbas_plan_mpi                       0.000392                      3   6
  318                map_forward                           0.000206                    4   7
  319                  map_gather                            0.000048                  2   8
  320                  m_alltoallv_z                         0.000026                  2   8
  321                  map_scatter                           0.000099                  2   8
  322                map_backward                          0.000100                    2   7
  323                  map_gather                            0.000026                  1   8
  324                  m_alltoallv_z                         0.000011                  1   8
  325                  map_scatter                           0.000046                  1   8
  326          m_sumb_d                              0.000009                          2   4
  327          pothar                                0.000083                          1   4
  328            m_sumb_d                              0.000009                        1   5
  329        brmix                                 0.011167                            1   3
  330          m_sumb_d                              0.000036                          6   4
  331          brpre                                 0.000034                          2   4
  332          setg0                                 0.001221                          1   4
  333          broyd                                 0.008424                          1   4
  334            brget                                 0.002348                      326   5
  335            brsav                                 0.001080                      163   5
  336            m_sumb_d                              0.000201                       47   5
  337        m_bcast_d                             0.000026                            2   3
  338      potlok                                0.044269                              2   2
  339        fft3d_mpi                             0.026834                           36   3
  340          fftbrc_mpi                            0.023172                         36   4
  341            fftbas_plan_mpi                       0.023155                       36   5
  342              map_forward                           0.006523                     40   6
  343                map_gather                            0.002006                   24   7
  344                m_alltoallv_z                         0.002444                   24   7
  345                map_scatter                           0.001869                   24   7
  346              map_backward                          0.006010                     32   6
  347                map_gather                            0.001861                   16   7
  348                m_alltoallv_z                         0.002349                   16   7
  349                map_scatter                           0.001586                   16   7
  350              dfftw_execute                         0.008978                     30   6
  351        m_sumb_d                              0.000027                            5   3
  352        pothar                                0.001727                            2   3
  353          m_sumb_d                              0.000146                          2   4
  354        m_bcast_d                             0.002893                            4   3
  355      potlok_metagga                        0.000000                              1   2
  356      set_dd_magatom                        0.000004                              1   2
  357      set_dd_paw                            1.377309                              1   2
  358        m_sumb_d                              0.009954                            7   3
  359      augmentation_charge                   0.115140                              1   2
  360        fft3d_mpi                             0.053207                            2   3
  361          fftbrc_mpi                            0.047539                          2   4
  362            fftbas_plan_mpi                       0.047536                        2   5
  363              dfftw_execute                         0.026067                      6   6
  364              map_backward                          0.021279                      4   6
  365                map_gather                            0.005298                    2   7
  366                m_alltoallv_z                         0.008700                    2   7
  367                map_scatter                           0.007271                    2   7
  368      fftwav_mpi                            2.848017                           2394   2
  369        fftwav                                2.845020                         2394   3
  370          fft3d                                 2.629054                       2394   4
  371      densta                                1.934669                              1   2
 
 Flat profile
 ============
 
             routine name                   CPU           calls
 ---------------------------------------------------------------
 set_dd_paw                            340.335115         248
 eddav                                 217.984946         250
 m_sumb_d                              204.040481     1327221
 lapack                                198.565137      432011
 raccmu_                               174.352998      432011
 redis_pw                               95.757993     2258295
 m_alltoall_d                           40.984175     5889149
 phaser                                 22.452504       10773
 fft3d                                  21.218193     2394040
 eccp                                   20.753507      199500
 redis_proj                             19.030359     2871074
 dfftw_execute                          18.962029        6396
 densta                                 18.486326         251
 setdij_                                15.800423         274
 augmentation_charge                    15.298693         248
 fftwav                                 14.901889     1581803
 orth1                                  13.948866     1296159
 hamiltmu                               12.636187      432011
 racc0mu_acc                            12.439835      432011
 w1_copy                                11.970790     2436711
 init_acc                               11.945134           1
 total_time                             11.823166           1
 overl                                  11.783182     1425016
 rpromu_acc                              9.858382      329741
 soft_charge                             9.448966         247
 m_bcast_z                               9.375036      435203
 setup_precond                           7.292919      199500
 m_bcast_d                               7.214273      864523
 overl_mu                                6.661982      432011
 ggemm                                   6.018450      537011
 pw_charge                               4.948701      144061
 m_alltoallv_z                           4.760136        9589
 map_scatter                             4.141707        9589
 vhamil                                  3.773257      812237
 kinhamil                                3.737622      812237
 fft3d_mpi                               3.565734      820816
 fftext_mpi                              3.469588      812237
 apply_precond                           3.398109      612737
 newband                                 3.231604      442511
 depsum                                  3.190727         247
 set_charge                              2.929639         247
 map_gather                              2.804236        9589
 acc_init_cublas                         2.462648           1
 fftwav_mpi                              2.159518     1581803
 broyd                                   1.272292         246
 potlok                                  1.175630         248
 acc_init_cusolver                       0.790370           1
 rpro_isp                                0.612064         273
 elmin                                   0.486577           1
 brmix                                   0.484545         246
 fftbas_plan_mpi                         0.420034        8579
 brget                                   0.401627       54155
 lincom                                  0.365084       10542
 w1_projall                              0.314876      327011
 setg0                                   0.306545         248
 acc_cufft_makeplan                      0.143924          19
 rspher_all                              0.123327          14
 brsav                                   0.109018       15506
 sphpro_fast                             0.100873           2
 truncate_high_frequency_w1              0.076047     1011737
 proall                                  0.062186           1
 map_backward                            0.058175        9062
 map_forward                             0.053888        8096
 fft_gq                                  0.027785         247
 orthch                                  0.027565           1
 pothar                                  0.022051         249
 force_and_stress                        0.017786           1
 choleski                                0.011032          42
 brpre                                   0.009300         492
 stufak                                  0.008443           1
 strnlr                                  0.005974           1
 fftbrc_mpi                              0.005111        8579
 inisym                                  0.004242           1
 forhar                                  0.002621           2
 strelo                                  0.002444           1
 fornlr                                  0.002053           1
 strehar                                 0.001779           1
 forloc                                  0.001351           1
 strkin                                  0.001144           1
 set_dd_magatom                          0.001089         248
 vectorpot                               0.001014         247
 fewald                                  0.000371           1
 rsp                                     0.000261           1
 chggra                                  0.000245           1
 brgrid                                  0.000241           1
 fordep                                  0.000062           1
 potlok_metagga                          0.000030         247
 crpa_reader                             0.000028           1
 rcp                                     0.000021           1
 posmap                                  0.000017           2
 acc_cufft_makeplans                     0.000012           3
 rotate_active_occupied_orbital          0.000001           1
 redis_pw_over_bands                     0.000000           1
 ---------------------------------------------------------------
  summed up times     1637.426315069199     
 
 Accumulative profile
 ====================
 
             routine name                   CPU           calls
 ---------------------------------------------------------------
 total_time                           1637.426315           1
 elmin                                1594.412773           1
 eddav                                1147.714436         250
 set_dd_paw                            340.813026         248
 hamiltmu                              223.053691      432011
 m_sumb_d                              204.040481     1327221
 lapack                                198.565137      432011
 raccmu_                               193.454815      432011
 redis_pw                              116.003556     2258295
 set_charge                             55.978799         247
 newband                                47.075368      442511
 m_alltoall_d                           40.984175     5889149
 fft3d_mpi                              40.510164      820816
 redis_proj                             39.768971     2871074
 setdij_                                35.167710         274
 fftwav_mpi                             32.540487     1581803
 fftbrc_mpi                             31.205317        8579
 fftbas_plan_mpi                        31.200207        8579
 fftwav                                 30.380969     1581803
 augmentation_charge                    28.464335         248
 phaser                                 22.452504       10773
 fft3d                                  21.218193     2394040
 soft_charge                            21.033733         247
 eccp                                   20.753507      199500
 dfftw_execute                          18.962029        6396
 densta                                 18.486326         251
 orth1                                  13.948866     1296159
 kinhamil                               13.189432      812237
 racc0mu_acc                            12.439835      432011
 w1_copy                                11.970790     2436711
 init_acc                               11.945134           1
 overl                                  11.783182     1425016
 rpromu_acc                              9.858382      329741
 w1_projall                              9.685719      327011
 fftext_mpi                              9.451810      812237
 m_bcast_z                               9.375036      435203
 setup_precond                           7.292919      199500
 m_bcast_d                               7.214273      864523
 force_and_stress                        6.975738           1
 overl_mu                                6.661982      432011
 map_backward                            6.532462        9062
 ggemm                                   6.018450      537011
 map_forward                             5.285681        8096
 pw_charge                               4.948701      144061
 m_alltoallv_z                           4.760136        9589
 map_scatter                             4.141707        9589
 vhamil                                  3.773257      812237
 apply_precond                           3.398109      612737
 depsum                                  3.231059         247
 map_gather                              2.804236        9589
 brmix                                   2.647355         246
 potlok                                  2.558697         248
 acc_init_cublas                         2.462648           1
 broyd                                   1.832260         246
 strnlr                                  1.521497           1
 rpro_isp                                1.414467         273
 acc_init_cusolver                       0.790370           1
 fordep                                  0.767218           1
 fft_gq                                  0.670863         247
 fornlr                                  0.505990           1
 brget                                   0.401627       54155
 lincom                                  0.365084       10542
 orthch                                  0.329104           1
 setg0                                   0.306545         248
 proall                                  0.148329           1
 acc_cufft_makeplans                     0.143936           3
 acc_cufft_makeplan                      0.143924          19
 rspher_all                              0.123327          14
 brsav                                   0.109018       15506
 sphpro_fast                             0.104511           2
 truncate_high_frequency_w1              0.076047     1011737
 pothar                                  0.024291         249
 choleski                                0.011032          42
 brpre                                   0.009300         492
 stufak                                  0.008443           1
 inisym                                  0.004259           1
 forhar                                  0.002670           2
 strelo                                  0.002602           1
 fewald                                  0.001813           1
 strehar                                 0.001789           1
 forloc                                  0.001382           1
 strkin                                  0.001165           1
 set_dd_magatom                          0.001089         248
 vectorpot                               0.001014         247
 chggra                                  0.000835           1
 rsp                                     0.000261           1
 brgrid                                  0.000241           1
 potlok_metagga                          0.000030         247
 crpa_reader                             0.000028           1
 rcp                                     0.000021           1
 posmap                                  0.000017           2
 rotate_active_occupied_orbital          0.000001           1
 redis_pw_over_bands                     0.000000           1
 ---------------------------------------------------------------
 
Profiling took   5.209276  2.502920  0.003406  0.003305 seconds
Profiling took   3.293186 seconds
