 vasp.6.3.2 27Jun22 (build Jul  3 2023 11:46:21) complex                         
 executed on    LinuxNV_CrayMPICH date 2024.04.22  03:39:02
 running on    4 total cores
 distrk:  each k-point on    4 cores,    1 groups
 distr:  one band on NCORE=   1 cores,    4 groups


--------------------------------------------------------------------------------------------------------


 INCAR:
   ALGO = Normal
   EDIFF = 1e-05
   ENCUT = 520.0
   IBRION = -1
   ISIF = 3
   ISMEAR = -5
   ISPIN = 2
   LAECHG = True
   LASPH = True
   LCHARG = True
   LORBIT = 11
   LREAL = Auto
   LVHAR = True
   LWAVE = False
   MAGMOM = 1*7.0 3*0.6 8*5.0
   NELM = 1000
   NSW = 0
   PREC = Accurate
   SIGMA = 0.05

 POTCAR:    PAW_PBE Gd 23Dec2003                  
 POTCAR:    PAW_PBE Er_3 06Sep2000                
 POTCAR:    PAW_PBE Mn_pv 02Aug2007               
 POTCAR:    PAW_PBE Gd 23Dec2003                  
   SHA256 =  58854b40b4643190560b0e2b62d2ab46bea96585f82c6231a0f4f44b8c3188dc Gd/POTCAR             
   COPYR  = (c) Copyright 23Dec2003 Georg Kresse                                                    
   COPYR  = This file is part of the software VASP. Any use, copying, and all other rights are regul
   COPYR  = If you do not have a valid VASP license, you may not use, copy or distribute this file. 
   VRHFIN =Gd : [core=Xe4]                                                                          
   LEXCH  = PE                                                                                      
   EATOM  =  3047.6032 eV,  223.9925 Ry                                                             
                                                                                                    
   TITEL  = PAW_PBE Gd 23Dec2003                                                                    
   LULTRA =        F    use ultrasoft PP ?                                                          
   IUNSCR =        1    unscreen: 0-lin 1-nonlin 2-no                                               
   RPACOR =    2.300    partial core radius                                                         
   POMASS =  157.250; ZVAL   =   18.000    mass and valenz                                          
   RCORE  =    2.800    outmost cutoff radius                                                       
   RWIGS  =    2.800; RWIGS  =    1.482    wigner-seitz radius (au A)                               
   ENMAX  =  256.472; ENMIN  =  192.354 eV                                                          
   RCLOC  =    2.316    cutoff for local pot                                                        
   LCOR   =        T    correct aug charges                                                         
   LPAW   =        T    paw PP                                                                      
   EAUG   =  537.243                                                                                
   DEXC   =    0.000                                                                                
   RMAX   =    2.857    core radius for proj-oper                                                   
   RAUG   =    1.300    factor for augmentation sphere                                              
   RDEP   =    2.921    radius for radial grids                                                     
   RDEPT  =    2.247    core radius for aug-charge                                                  
                                                                                                    
   Atomic configuration                                                                             
   14 entries                                                                                       
     n  l   j            E        occ.                                                              
     1  0  0.50    -50087.2354   2.0000                                                             
     2  0  0.50     -8269.2182   2.0000                                                             
     2  1  1.50     -7357.3672   6.0000                                                             
     3  0  0.50     -1833.2681   2.0000                                                             
     3  1  1.50     -1550.9376   6.0000                                                             
     3  2  2.50     -1178.7204  10.0000                                                             
     4  0  0.50      -369.2978   2.0000                                                             
     4  1  1.50      -276.2601   6.0000                                                             
     4  2  2.50      -147.6611  10.0000                                                             
     5  0  0.50       -49.7260   2.0000                                                             
     6  0  0.50        -4.1254   2.0000                                                             
     5  1  1.50       -27.2538   6.0000                                                             
     5  2  2.50        -2.5337   1.0000                                                             
     4  3  2.50        -8.7140   7.0000                                                             
   Description                                                                                      
     l       E           TYP  RCUT    TYP  RCUT                                                     
     0    -49.7259557     23  2.400                                                                 
     0     -4.1254107     23  2.400                                                                 
     1    -27.2537518     23  2.400                                                                 
     1     20.4087390     23  2.400                                                                 
     2     -2.5337329     23  2.500                                                                 
     2     13.6058260     23  2.500                                                                 
     3     -8.7140389     23  2.800                                                                 
     3     -9.5240782     23  2.800                                                                 
  local pseudopotential read in
  partial core-charges read in
  partial kinetic energy density read in
  atomic valenz-charges read in
  non local Contribution for L=            0  read in
    real space projection operators read in
  non local Contribution for L=            0  read in
    real space projection operators read in
  non local Contribution for L=            1  read in
    real space projection operators read in
  non local Contribution for L=            1  read in
    real space projection operators read in
  non local Contribution for L=            2  read in
    real space projection operators read in
  non local Contribution for L=            2  read in
    real space projection operators read in
  non local Contribution for L=            3  read in
    real space projection operators read in
  non local Contribution for L=            3  read in
    real space projection operators read in
    PAW grid and wavefunctions read in
 
   number of l-projection  operators is LMAX  =            8
   number of lm-projection operators is LMMAX =           32
 
 POTCAR:    PAW_PBE Er_3 06Sep2000                
   SHA256 =  13ccedc37aac4ee531880ba6a6cef52f3f4eebb465d5e17e8d6864742c4f7e0d Er_3/POTCAR           
   COPYR  = (c) Copyright 06Sep2000 Georg Kresse                                                    
   COPYR  = This file is part of the software VASP. Any use, copying, and all other rights are regul
   COPYR  = If you do not have a valid VASP license, you may not use, copy or distribute this file. 
   VRHFIN =Er : [core=Xe4]                                                                          
   LEXCH  = PE                                                                                      
   EATOM  =   672.9347 eV,   49.4593 Ry                                                             
                                                                                                    
   TITEL  = PAW_PBE Er_3 06Sep2000                                                                  
   LULTRA =        F    use ultrasoft PP ?                                                          
   IUNSCR =        1    unscreen: 0-lin 1-nonlin 2-no                                               
   RPACOR =    2.300    partial core radius                                                         
   POMASS =  167.260; ZVAL   =    9.000    mass and valenz                                          
   RCORE  =    3.000    outmost cutoff radius                                                       
   RWIGS  =    3.000; RWIGS  =    1.588    wigner-seitz radius (au A)                               
   ENMAX  =  155.037; ENMIN  =  116.278 eV                                                          
   RCLOC  =    2.308    cutoff for local pot                                                        
   LCOR   =        T    correct aug charges                                                         
   LPAW   =        T    paw PP                                                                      
   EAUG   =  307.908                                                                                
   DEXC   =    0.000                                                                                
   RMAX   =    3.060    core radius for proj-oper                                                   
   RAUG   =    1.300    factor for augmentation sphere                                              
   RDEP   =    3.178    radius for radial grids                                                     
   RDEPT  =    2.456    core radius for aug-charge                                                  
                                                                                                    
   Atomic configuration                                                                             
   14 entries                                                                                       
     n  l   j            E        occ.                                                              
     1  0  0.50    -57361.5229   2.0000                                                             
     2  0  0.50     -9641.3894   2.0000                                                             
     2  1  1.50     -8526.3789   6.0000                                                             
     3  0  0.50     -2166.6055   2.0000                                                             
     3  1  1.50     -1827.6164   6.0000                                                             
     3  2  2.50     -1403.8992  10.0000                                                             
     4  0  0.50      -433.4514   2.0000                                                             
     4  1  1.50      -321.8782   6.0000                                                             
     4  2  2.50      -172.5488  10.0000                                                             
     4  3  2.50        -9.5015  11.0000                                                             
     5  0  0.50       -55.9992   2.0000                                                             
     6  0  0.50        -4.4126   2.0000                                                             
     5  1  1.50       -29.7450   6.0000                                                             
     5  2  2.50        -2.0867   1.0000                                                             
   Description                                                                                      
     l       E           TYP  RCUT    TYP  RCUT                                                     
     0     -4.4125979     23  3.000                                                                 
     0     10.8846608     23  3.000                                                                 
     1    -29.7449686     23  3.000                                                                 
     1    -31.1055512     23  3.000                                                                 
     2     -2.0867431     23  3.000                                                                 
     2      0.6131630     23  3.000                                                                 
  local pseudopotential read in
  partial core-charges read in
  partial kinetic energy density read in
  atomic valenz-charges read in
  non local Contribution for L=            0  read in
    real space projection operators read in
  non local Contribution for L=            0  read in
    real space projection operators read in
  non local Contribution for L=            1  read in
    real space projection operators read in
  non local Contribution for L=            1  read in
    real space projection operators read in
  non local Contribution for L=            2  read in
    real space projection operators read in
  non local Contribution for L=            2  read in
    real space projection operators read in
    PAW grid and wavefunctions read in
 
   number of l-projection  operators is LMAX  =            6
   number of lm-projection operators is LMMAX =           18
 
 POTCAR:    PAW_PBE Mn_pv 02Aug2007               
   SHA256 =  c79df11ab18a0e3347296df6ded47bb5f18b2e4fbd621d0b5280d2eae24c30a0 Mn_pv/POTCAR          
   COPYR  = (c) Copyright 02Aug2007 Georg Kresse                                                    
   COPYR  = This file is part of the software VASP. Any use, copying, and all other rights are regul
   COPYR  = If you do not have a valid VASP license, you may not use, copy or distribute this file. 
   VRHFIN =Mn: 3p4s3d                                                                               
   LEXCH  = PE                                                                                      
   EATOM  =  2025.2664 eV,  148.8529 Ry                                                             
                                                                                                    
   TITEL  = PAW_PBE Mn_pv 02Aug2007                                                                 
   LULTRA =        F    use ultrasoft PP ?                                                          
   IUNSCR =        1    unscreen: 0-lin 1-nonlin 2-no                                               
   RPACOR =    2.080    partial core radius                                                         
   POMASS =   54.938; ZVAL   =   13.000    mass and valenz                                          
   RCORE  =    2.300    outmost cutoff radius                                                       
   RWIGS  =    2.500; RWIGS  =    1.323    wigner-seitz radius (au A)                               
   ENMAX  =  269.864; ENMIN  =  202.398 eV                                                          
   ICORE  =        3    local potential                                                             
   LCOR   =        T    correct aug charges                                                         
   LPAW   =        T    paw PP                                                                      
   EAUG   =  569.085                                                                                
   DEXC   =    0.000                                                                                
   RMAX   =    2.343    core radius for proj-oper                                                   
   RAUG   =    1.300    factor for augmentation sphere                                              
   RDEP   =    2.338    radius for radial grids                                                     
   RDEPT  =    1.798    core radius for aug-charge                                                  
                                                                                                    
   Atomic configuration                                                                             
    8 entries                                                                                       
     n  l   j            E        occ.                                                              
     1  0  0.50     -6424.8287   2.0000                                                             
     2  0  0.50      -739.1154   2.0000                                                             
     2  1  1.50      -625.3949   6.0000                                                             
     3  0  0.50       -81.6100   2.0000                                                             
     3  1  1.50       -50.4667   6.0000                                                             
     3  2  2.50        -3.3745   6.0000                                                             
     4  0  0.50        -4.1331   1.0000                                                             
     4  3  2.50        -1.3606   0.0000                                                             
   Description                                                                                      
     l       E           TYP  RCUT    TYP  RCUT                                                     
     1    -50.4666628     23  2.000                                                                 
     1     -1.3605826     23  2.000                                                                 
     2     -3.3744729     23  2.300                                                                 
     2     -4.7350555     23  2.300                                                                 
     0     -4.1331431     23  2.300                                                                 
     0      7.6656591     23  2.300                                                                 
     3      9.5240782     23  2.300                                                                 
  local pseudopotential read in
  partial core-charges read in
  partial kinetic energy density read in
  atomic valenz-charges read in
  non local Contribution for L=            1  read in
    real space projection operators read in
  non local Contribution for L=            1  read in
    real space projection operators read in
  non local Contribution for L=            2  read in
    real space projection operators read in
  non local Contribution for L=            2  read in
    real space projection operators read in
  non local Contribution for L=            0  read in
    real space projection operators read in
  non local Contribution for L=            0  read in
    real space projection operators read in
    PAW grid and wavefunctions read in
 
   number of l-projection  operators is LMAX  =            6
   number of lm-projection operators is LMMAX =           18
 
 Optimization of the real space projectors (new method)

 maximal supplied QI-value         = 13.42
 optimisation between [QCUT,QGAM] = [ 11.67, 23.35] = [ 38.16,152.62] Ry 
 Optimized for a Real-space Cutoff    1.63 Angstroem

   l    n(q)    QCUT    max X(q) W(low)/X(q) W(high)/X(q)  e(spline) 
   0     11    11.673    10.501    0.14E-04    0.17E-05    0.21E-07
   0     11    11.673     9.148    0.21E-04    0.32E-05    0.45E-07
   1     11    11.673     4.035    0.33E-05    0.11E-04    0.84E-07
   1     11    11.673     4.388    0.11E-04    0.47E-04    0.34E-06
   2     10    11.673    20.656    0.12E-04    0.28E-04    0.54E-06
   2     10    11.673    12.651    0.11E-04    0.26E-04    0.51E-06
   3     10    11.673    61.921    0.19E-03    0.22E-03    0.23E-06
   3     10    11.673    48.328    0.20E-03    0.23E-03    0.23E-06
 Optimization of the real space projectors (new method)

 maximal supplied QI-value         = 12.47
 optimisation between [QCUT,QGAM] = [ 11.60, 23.32] = [ 37.68,152.32] Ry 
 Optimized for a Real-space Cutoff    1.83 Angstroem

   l    n(q)    QCUT    max X(q) W(low)/X(q) W(high)/X(q)  e(spline) 
   0     13    11.599    48.894    0.36E-04    0.44E-05    0.66E-06
   0     13    11.599    24.210    0.23E-04    0.40E-05    0.57E-06
   1     12    11.599    38.381    0.61E-05    0.13E-04    0.10E-05
   1     12    11.599    39.149    0.63E-05    0.14E-04    0.11E-05
   2     12    11.599   405.348    0.23E-03    0.44E-04    0.18E-05
   2     12    11.599   322.512    0.23E-03    0.44E-04    0.18E-05
 Optimization of the real space projectors (new method)

 maximal supplied QI-value         = 16.25
 optimisation between [QCUT,QGAM] = [ 11.54, 23.24] = [ 37.28,151.24] Ry 
 Optimized for a Real-space Cutoff    1.45 Angstroem

   l    n(q)    QCUT    max X(q) W(low)/X(q) W(high)/X(q)  e(spline) 
   1     10    11.539     3.658    0.56E-04    0.12E-03    0.13E-06
   1     10    11.539     5.612    0.11E-03    0.23E-03    0.24E-06
   2      9    11.539    55.373    0.45E-04    0.92E-04    0.22E-06
   2      9    11.539    50.863    0.47E-04    0.95E-04    0.22E-06
   0     10    11.539    79.536    0.46E-04    0.27E-04    0.11E-06
   0     10    11.539    38.668    0.38E-04    0.25E-04    0.10E-06
  PAW_PBE Gd 23Dec2003                  :
 energy of atom  1       EATOM=-3047.6032
 kinetic energy error for atom=    0.0019 (will be added to EATOM!!)
  PAW_PBE Er_3 06Sep2000                :
 energy of atom  2       EATOM= -672.9347
 kinetic energy error for atom=    0.0002 (will be added to EATOM!!)
  PAW_PBE Mn_pv 02Aug2007               :
 energy of atom  3       EATOM=-2025.2664
 kinetic energy error for atom=    0.0058 (will be added to EATOM!!)
 
 
 POSCAR: Gd1 Er3 Mn8
  positions in direct lattice
  No initial velocities read in
 exchange correlation table for  LEXCH =        8
   RHO(1)=    0.500       N(1)  =     2000
   RHO(2)=  100.500       N(2)  =     4000

 VTST: version 4.2, (08/11/21)

 CHAIN: initializing optimizer
 
 OPT: Using VASP Dynamics algorithm
 CHAIN: Read ICHAIN             0
 
 POSCAR: Gd1 Er3 Mn8
  positions in direct lattice
  No initial velocities read in
 


--------------------------------------------------------------------------------------------------------


 ion  position               nearest neighbor table
   1  0.667  0.333  0.563-  10 2.84  12 2.84   7 2.86   9 2.86  11 2.86   8 2.86   8 2.86   5 2.87
                             5 2.87   7 2.87   9 2.87   5 2.87   4 2.96   2 2.99   2 3.00   2 3.00
   2  0.333  0.667  0.437-   7 2.85   9 2.85  10 2.85  12 2.85   8 2.86  11 2.86  11 2.86   5 2.87
                             5 2.87  12 2.87  10 2.87   5 2.87   3 2.96   1 2.99   1 3.00   1 3.00
   3  0.333  0.667  0.063-   8 2.83   7 2.84   9 2.84  10 2.85  12 2.85  11 2.85  11 2.85   6 2.86
                            10 2.87  12 2.87   6 2.87   6 2.87   2 2.96   4 2.99   4 2.99   4 3.00
   4  0.667  0.333  0.937-  11 2.83  10 2.84  12 2.84   9 2.85   7 2.85   8 2.86   8 2.86   7 2.86
                             9 2.86   6 2.87   6 2.87   6 2.87   1 2.96   3 2.99   3 2.99   3 3.00
   5  0.000  1.000  0.500-  11 2.43   8 2.44  10 2.45  12 2.45   9 2.45   7 2.45   2 2.87   2 2.87
                             1 2.87   1 2.87   2 2.87   1 2.87
   6  1.000  0.000  0.001-  10 2.43  12 2.43   7 2.43   9 2.43  11 2.44   8 2.45   3 2.86   4 2.87
                             3 2.87   3 2.87   4 2.87   4 2.87
   7  0.168  0.337  0.751-   9 2.42   8 2.42   6 2.43   5 2.45   9 2.47   8 2.47   3 2.84   2 2.85
                             4 2.85   1 2.86   4 2.86   1 2.87
   8  0.168  0.832  0.751-   7 2.42   9 2.42   5 2.44   6 2.45   7 2.47   9 2.47   3 2.83   4 2.86
                             4 2.86   2 2.86   1 2.86   1 2.86
   9  0.663  0.832  0.751-   7 2.42   8 2.42   6 2.43   5 2.45   7 2.47   8 2.47   3 2.84   2 2.85
                             4 2.85   1 2.86   4 2.86   1 2.87
  10  0.831  0.663  0.249-  12 2.42  11 2.42   6 2.43   5 2.45  11 2.47  12 2.47   1 2.84   4 2.84
                             3 2.85   2 2.85   3 2.87   2 2.87
  11  0.831  0.169  0.249-  10 2.42  12 2.42   5 2.43   6 2.44  12 2.47  10 2.47   4 2.83   3 2.85
                             3 2.85   1 2.86   2 2.86   2 2.86
  12  0.337  0.169  0.249-  10 2.42  11 2.42   6 2.43   5 2.45  11 2.47  10 2.47   1 2.84   4 2.84
                             3 2.85   2 2.85   3 2.87   2 2.87
 
  LATTYP: Found a base centered monoclinic cell.
 ALAT       =     8.4746705812
 B/A-ratio  =     0.5771506931
 C/A-ratio  =     0.9338270142
 COS(beta)  =    -0.0080860975
  
  Lattice vectors:
  
 A1 = (   2.4455810000,  -4.2373010000,   0.0170470000)
 A2 = (  -2.4455810000,  -4.2373010000,   0.0170470000)
 A3 = (   0.0000000000,   0.0321550000,  -7.9138110000)


Analysis of symmetry for initial positions (statically):
=====================================================================
 Subroutine PRICEL returns:
 Original cell was already a primitive cell.
 

 Routine SETGRP: Setting up the symmetry group for a 
 base centered monoclinic supercell.


 Subroutine GETGRP returns: Found  2 space group operations
 (whereof  2 operations were pure point group operations)
 out of a pool of  4 trial point group operations.


The static configuration has the point symmetry C_1h.


Analysis of symmetry for dynamics (positions and initial velocities):
=====================================================================
 Subroutine PRICEL returns:
 Original cell was already a primitive cell.
 

 Routine SETGRP: Setting up the symmetry group for a 
 base centered monoclinic supercell.


 Subroutine GETGRP returns: Found  2 space group operations
 (whereof  2 operations were pure point group operations)
 out of a pool of  4 trial point group operations.


The dynamic configuration has the point symmetry C_1h.


Analysis of structural, dynamic, and magnetic symmetry:
=====================================================================
 Subroutine PRICEL returns:
 Original cell was already a primitive cell.
 

 Routine SETGRP: Setting up the symmetry group for a 
 base centered monoclinic supercell.


 Subroutine GETGRP returns: Found  2 space group operations
 (whereof  2 operations were pure point group operations)
 out of a pool of  4 trial point group operations.


The overall configuration has the point symmetry C_1h.


 Subroutine INISYM returns: Found  2 space group operations
 (whereof  2 operations are pure point group operations),
 and found     1 'primitive' translations


----------------------------------------------------------------------------------------

                                     Primitive cell                                     

  volume of cell :     164.0136

  direct lattice vectors                    reciprocal lattice vectors
    -2.445581000 -4.237301000  0.017047000    -0.204450394 -0.118001571 -0.000479458
    -2.445581000  4.237301000 -0.017047000    -0.204450394  0.118001571  0.000479458
     0.000000000  0.032155000 -7.913811000    -0.000000000 -0.000508370 -0.126363436

  length of vectors
     4.892430561  4.892430561  7.913876325     0.236060510  0.236060510  0.126364458

  position of ions in fractional coordinates (direct lattice)
     0.666675000  0.333325000  0.562661000
     0.333383000  0.666617000  0.436861000
     0.333371000  0.666629000  0.063102000
     0.666648000  0.333352000  0.937045000
     0.000046000  0.999954000  0.499701000
     0.999985000  0.000015000  0.000547000
     0.168457000  0.336768000  0.750878000
     0.168445000  0.831555000  0.750813000
     0.663232000  0.831543000  0.750878000
     0.831295000  0.662987000  0.249182000
     0.831449000  0.168551000  0.249150000
     0.337013000  0.168705000  0.249182000

  ion indices of the primitive-cell ions
   primitive index   ion index
                 1           1
                 2           2
                 3           3
                 4           4
                 5           5
                 6           6
                 7           7
                 8           8
                 9           9
                10          10
                11          11
                12          12

----------------------------------------------------------------------------------------

 
 
 KPOINTS: Kpoints from vasprun.xml                

Automatic generation of k-mesh.
 Grid dimensions read from file:
 generate k-points for:    6    6    3

 Generating k-lattice:

  Cartesian coordinates                     Fractional coordinates (reciprocal lattice)
    -0.034075066 -0.019666928 -0.000079910     0.166666667  0.000000000  0.000000000
    -0.034075066  0.019666928  0.000079910     0.000000000  0.166666667 -0.000000000
    -0.000000000 -0.000169457 -0.042121145     0.000000000 -0.000000000  0.333333333

  Length of vectors
     0.039343418  0.039343418  0.042121486

  Shift w.r.t. Gamma in fractional coordinates (k-lattice)
     0.000000000  0.000000000  0.000000000

 TETIRR: Found    165 inequivalent tetrahedra from      648
 
 Subroutine IBZKPT returns following result:
 ===========================================
 
 Found     34 irreducible k-points:
 
 Following reciprocal coordinates:
            Coordinates               Weight
  0.000000  0.000000  0.000000      1.000000
  0.166667  0.000000  0.000000      4.000000
  0.333333  0.000000  0.000000      4.000000
  0.500000  0.000000  0.000000      2.000000
  0.166667  0.166667  0.000000      2.000000
  0.333333  0.166667  0.000000      4.000000
  0.500000  0.166667  0.000000      4.000000
 -0.333333  0.166667  0.000000      4.000000
 -0.166667  0.166667  0.000000      2.000000
  0.333333  0.333333  0.000000      2.000000
  0.500000  0.333333  0.000000      4.000000
 -0.333333  0.333333  0.000000      2.000000
  0.500000  0.500000  0.000000      1.000000
  0.000000  0.000000  0.333333      2.000000
  0.166667  0.000000  0.333333      4.000000
  0.333333  0.000000  0.333333      4.000000
  0.500000  0.000000  0.333333      4.000000
 -0.333333  0.000000  0.333333      4.000000
 -0.166667  0.000000  0.333333      4.000000
  0.166667  0.166667  0.333333      4.000000
  0.333333  0.166667  0.333333      4.000000
  0.500000  0.166667  0.333333      4.000000
 -0.333333  0.166667  0.333333      4.000000
 -0.166667  0.166667  0.333333      2.000000
  0.166667  0.333333  0.333333      4.000000
  0.333333  0.333333  0.333333      4.000000
  0.500000  0.333333  0.333333      4.000000
 -0.333333  0.333333  0.333333      2.000000
  0.166667  0.500000  0.333333      4.000000
  0.333333  0.500000  0.333333      4.000000
  0.500000  0.500000  0.333333      2.000000
  0.166667 -0.333333  0.333333      4.000000
  0.333333 -0.333333  0.333333      2.000000
  0.166667 -0.166667  0.333333      2.000000
 
 Following cartesian coordinates:
            Coordinates               Weight
 -0.000000 -0.000000 -0.000000      1.000000
 -0.034075 -0.019667 -0.000080      4.000000
 -0.068150 -0.039334 -0.000160      4.000000
 -0.102225 -0.059001 -0.000240      2.000000
 -0.068150  0.000000 -0.000000      2.000000
 -0.102225 -0.019667 -0.000080      4.000000
 -0.136300 -0.039334 -0.000160      4.000000
  0.034075  0.059001  0.000240      4.000000
 -0.000000  0.039334  0.000160      2.000000
 -0.136300 -0.000000 -0.000000      2.000000
 -0.170375 -0.019667 -0.000080      4.000000
 -0.000000  0.078668  0.000320      2.000000
 -0.204450  0.000000 -0.000000      1.000000
 -0.000000 -0.000169 -0.042121      2.000000
 -0.034075 -0.019836 -0.042201      4.000000
 -0.068150 -0.039503 -0.042281      4.000000
 -0.102225 -0.059170 -0.042361      4.000000
  0.068150  0.039164 -0.041961      4.000000
  0.034075  0.019497 -0.042041      4.000000
 -0.068150 -0.000169 -0.042121      4.000000
 -0.102225 -0.019836 -0.042201      4.000000
 -0.136300 -0.039503 -0.042281      4.000000
  0.034075  0.058831 -0.041881      4.000000
 -0.000000  0.039164 -0.041961      2.000000
 -0.102225  0.019497 -0.042041      4.000000
 -0.136300 -0.000169 -0.042121      4.000000
 -0.170375 -0.019836 -0.042201      4.000000
 -0.000000  0.078498 -0.041802      2.000000
 -0.136300  0.039164 -0.041961      4.000000
 -0.170375  0.019497 -0.042041      4.000000
 -0.204450 -0.000169 -0.042121      2.000000
  0.034075 -0.059170 -0.042361      4.000000
 -0.000000 -0.078837 -0.042441      2.000000
 -0.000000 -0.039503 -0.042281      2.000000
 


--------------------------------------------------------------------------------------------------------




 Dimension of arrays:
   k-points           NKPTS =     34   k-points in BZ     NKDIM =     34   number of bands    NBANDS=    116
   number of dos      NEDOS =    301   number of ions     NIONS =     12
   non local maximal  LDIM  =      8   non local SUM 2l+1 LMDIM =     32
   total plane-waves  NPLWV =  77760
   max r-space proj   IRMAX =  12249   max aug-charges    IRDMAX=  36342
   dimension x,y,z NGX =    36 NGY =   36 NGZ =   60
   dimension x,y,z NGXF=    72 NGYF=   72 NGZF=  120
   support grid    NGXF=    72 NGYF=   72 NGZF=  120
   ions per type =               1   3   8
   NGX,Y,Z   is equivalent  to a cutoff of  12.23, 12.23, 12.60 a.u.
   NGXF,Y,Z  is equivalent  to a cutoff of  24.47, 24.47, 25.21 a.u.

 SYSTEM =  unknown system                          
 POSCAR =  Gd1 Er3 Mn8                             

 Startparameter for this run:
   NWRITE =      2    write-flag & timer
   PREC   = accura    normal or accurate (medium, high low for compatibility)
   ISTART =      0    job   : 0-new  1-cont  2-samecut
   ICHARG =      2    charge: 1-file 2-atom 10-const
   ISPIN  =      2    spin polarized calculation?
   LNONCOLLINEAR =      F non collinear calculations
   LSORBIT =      F    spin-orbit coupling
   INIWAV =      1    electr: 0-lowe 1-rand  2-diag
   LASPH  =      T    aspherical Exc in radial PAW
 Electronic Relaxation 1
   ENCUT  =  520.0 eV  38.22 Ry    6.18 a.u.   9.10  9.10 14.71*2*pi/ulx,y,z
   ENINI  =  520.0     initial cutoff
   ENAUG  =  569.1 eV  augmentation charge cutoff
   NELM   =   1000;   NELMIN=  2; NELMDL= -5     # of ELM steps 
   EDIFF  = 0.1E-04   stopping-criterion for ELM
   LREAL  =      T    real-space projection
   NLSPLINE    = F    spline interpolate recip. space projectors
   LCOMPAT=      F    compatible to vasp.4.4
   GGA_COMPAT  = T    GGA compatible to vasp.4.4-vasp.4.6
   LMAXPAW     = -100 max onsite density
   LMAXMIX     =    2 max onsite mixed and CHGCAR
   VOSKOWN=      0    Vosko Wilk Nusair interpolation
   ROPT   =   -0.00025  -0.00025  -0.00025
 Ionic relaxation
   EDIFFG = 0.1E-03   stopping-criterion for IOM
   NSW    =      0    number of steps for IOM
   NBLOCK =      1;   KBLOCK =      1    inner block; outer block 
   IBRION =     -1    ionic relax: 0-MD 1-quasi-New 2-CG
   NFREE  =      0    steps in history (QN), initial steepest desc. (CG)
   ISIF   =      3    stress and relaxation
   IWAVPR =     10    prediction:  0-non 1-charg 2-wave 3-comb
   ISYM   =      2    0-nonsym 1-usesym 2-fastsym
   LCORR  =      T    Harris-Foulkes like correction to forces

   POTIM  = 0.5000    time-step for ionic-motion
   TEIN   =    0.0    initial temperature
   TEBEG  =    0.0;   TEEND  =   0.0 temperature during run
   SMASS  =  -3.00    Nose mass-parameter (am)
   estimated Nose-frequenzy (Omega)   =  0.10E-29 period in steps = 0.13E+47 mass=  -0.547E-27a.u.
   SCALEE = 1.0000    scale energy and forces
   NPACO  =    256;   APACO  = 10.0  distance and # of slots for P.C.
   PSTRESS=    0.0 pullay stress

  Mass of Ions in am
   POMASS = 157.25167.26 54.94
  Ionic Valenz
   ZVAL   =  18.00  9.00 13.00
  Atomic Wigner-Seitz radii
   RWIGS  =  -1.00 -1.00 -1.00
  virtual crystal weights 
   VCA    =   1.00  1.00  1.00
   NELECT =     149.0000    total number of electrons
   NUPDOWN=      -1.0000    fix difference up-down

 DOS related values:
   EMIN   =  10.00;   EMAX   =-10.00  energy-range for DOS
   EFERMI =   0.00
   ISMEAR =    -5;   SIGMA  =   0.05  broadening in eV -4-tet -1-fermi 0-gaus

 Electronic relaxation 2 (details)
   IALGO  =     38    algorithm
   LDIAG  =      T    sub-space diagonalisation (order eigenvalues)
   LSUBROT=      F    optimize rotation matrix (better conditioning)
   TURBO    =      0    0=normal 1=particle mesh
   IRESTART =      0    0=no restart 2=restart with 2 vectors
   NREBOOT  =      0    no. of reboots
   NMIN     =      0    reboot dimension
   EREF     =   0.00    reference energy to select bands
   IMIX   =      4    mixing-type and parameters
     AMIX     =   0.40;   BMIX     =  1.00
     AMIX_MAG =   1.60;   BMIX_MAG =  1.00
     AMIN     =   0.10
     WC   =   100.;   INIMIX=   1;  MIXPRE=   1;  MAXMIX= -45

 Intra band minimization:
   WEIMIN = 0.0000     energy-eigenvalue tresh-hold
   EBREAK =  0.22E-07  absolut break condition
   DEPER  =   0.30     relativ break condition  

   TIME   =   0.40     timestep for ELM

  volume/ion in A,a.u.               =      13.67        92.23
  Fermi-wavevector in a.u.,A,eV,Ry     =   1.585539  2.996234 34.204149  2.513934
  Thomas-Fermi vector in A             =   2.684988
 
 Write flags
   LWAVE        =      F    write WAVECAR
   LDOWNSAMPLE  =      F    k-point downsampling of WAVECAR
   LCHARG       =      T    write CHGCAR
   LVTOT        =      F    write LOCPOT, total local potential
   LVHAR        =      T    write LOCPOT, Hartree potential only
   LELF         =      F    write electronic localiz. function (ELF)
   LORBIT       =     11    0 simple, 1 ext, 2 COOP (PROOUT), +10 PAW based schemes


 Dipole corrections
   LMONO  =      F    monopole corrections only (constant potential shift)
   LDIPOL =      F    correct potential (dipole corrections)
   IDIPOL =      0    1-x, 2-y, 3-z, 4-all directions 
   EPSILON=  1.0000000 bulk dielectric constant

 Exchange correlation treatment:
   GGA     =    --    GGA type
   LEXCH   =     8    internal setting for exchange type
   LIBXC   =     F    Libxc                    
   VOSKOWN =     0    Vosko Wilk Nusair interpolation
   LHFCALC =     F    Hartree Fock is set to
   LHFONE  =     F    Hartree Fock one center treatment
   AEXX    =    0.0000 exact exchange contribution

 Linear response parameters
   LEPSILON=     F    determine dielectric tensor
   LRPA    =     F    only Hartree local field effects (RPA)
   LNABLA  =     F    use nabla operator in PAW spheres
   LVEL    =     F    velocity operator in full k-point grid
   CSHIFT  =0.1000    complex shift for real part using Kramers Kronig
   OMEGAMAX=  -1.0    maximum frequency
   DEG_THRESHOLD= 0.2000000E-02 threshold for treating states as degnerate
   RTIME   =   -0.100 relaxation time in fs
  (WPLASMAI=    0.000 imaginary part of plasma frequency in eV, 0.658/RTIME)
   DFIELD  = 0.0000000 0.0000000 0.0000000 field for delta impulse in time
 
  Optional k-point grid parameters
   LKPOINTS_OPT  =     F    use optional k-point grid
   KPOINTS_OPT_MODE=     1    mode for optional k-point grid
 
 Orbital magnetization related:
   ORBITALMAG=     F  switch on orbital magnetization
   LCHIMAG   =     F  perturbation theory with respect to B field
   DQ        =  0.001000  dq finite difference perturbation B field
   LLRAUG    =     F  two centre corrections for induced B field



--------------------------------------------------------------------------------------------------------


 Static calculation
 charge density and potential will be updated during run
 spin polarized calculation
 Variant of blocked Davidson
 Davidson routine will perform the subspace rotation
 perform sub-space diagonalisation
    after iterative eigenvector-optimisation
 modified Broyden-mixing scheme, WC =      100.0
 initial mixing is a Kerker type mixing with AMIX =  0.4000 and BMIX =      1.0000
 Hartree-type preconditioning will be used
 using additional bands            41
 real space projection scheme for non local part
 use partial core corrections
 calculate Harris-corrections to forces 
   (improved forces if not selfconsistent)
 use gradient corrections 
 use of overlap-Matrix (Vanderbilt PP)
 Fermi weights with tetrahedron method with Bloechl corrections


--------------------------------------------------------------------------------------------------------


  energy-cutoff  :      520.00
  volume of cell :      164.01
      direct lattice vectors                 reciprocal lattice vectors
    -2.445581000 -4.237301000  0.017047000    -0.204450394 -0.118001571 -0.000479458
    -2.445581000  4.237301000 -0.017047000    -0.204450394  0.118001571  0.000479458
     0.000000000  0.032155000 -7.913811000    -0.000000000 -0.000508370 -0.126363436

  length of vectors
     4.892430561  4.892430561  7.913876325     0.236060510  0.236060510  0.126364458


 
 k-points in units of 2pi/SCALE and weight: Kpoints from vasprun.xml                
  -0.00000000 -0.00000000 -0.00000000       0.009
  -0.03407507 -0.01966693 -0.00007991       0.037
  -0.06815013 -0.03933386 -0.00015982       0.037
  -0.10222520 -0.05900079 -0.00023973       0.019
  -0.06815013  0.00000000 -0.00000000       0.019
  -0.10222520 -0.01966693 -0.00007991       0.037
  -0.13630026 -0.03933386 -0.00015982       0.037
   0.03407507  0.05900079  0.00023973       0.037
  -0.00000000  0.03933386  0.00015982       0.019
  -0.13630026 -0.00000000 -0.00000000       0.019
  -0.17037533 -0.01966693 -0.00007991       0.037
  -0.00000000  0.07866771  0.00031964       0.019
  -0.20445039  0.00000000 -0.00000000       0.009
  -0.00000000 -0.00016946 -0.04212115       0.019
  -0.03407507 -0.01983639 -0.04220105       0.037
  -0.06815013 -0.03950331 -0.04228096       0.037
  -0.10222520 -0.05917024 -0.04236087       0.037
   0.06815013  0.03916440 -0.04196133       0.037
   0.03407507  0.01949747 -0.04204124       0.037
  -0.06815013 -0.00016946 -0.04212115       0.037
  -0.10222520 -0.01983639 -0.04220105       0.037
  -0.13630026 -0.03950331 -0.04228096       0.037
   0.03407507  0.05883133 -0.04188142       0.037
  -0.00000000  0.03916440 -0.04196133       0.019
  -0.10222520  0.01949747 -0.04204124       0.037
  -0.13630026 -0.00016946 -0.04212115       0.037
  -0.17037533 -0.01983639 -0.04220105       0.037
  -0.00000000  0.07849826 -0.04180151       0.019
  -0.13630026  0.03916440 -0.04196133       0.037
  -0.17037533  0.01949747 -0.04204124       0.037
  -0.20445039 -0.00016946 -0.04212115       0.019
   0.03407507 -0.05917024 -0.04236087       0.037
  -0.00000000 -0.07883717 -0.04244078       0.019
  -0.00000000 -0.03950331 -0.04228096       0.019
 
 k-points in reciprocal lattice and weights: Kpoints from vasprun.xml                
   0.00000000  0.00000000  0.00000000       0.009
   0.16666667  0.00000000  0.00000000       0.037
   0.33333333  0.00000000  0.00000000       0.037
   0.50000000  0.00000000  0.00000000       0.019
   0.16666667  0.16666667  0.00000000       0.019
   0.33333333  0.16666667  0.00000000       0.037
   0.50000000  0.16666667  0.00000000       0.037
  -0.33333333  0.16666667  0.00000000       0.037
  -0.16666667  0.16666667  0.00000000       0.019
   0.33333333  0.33333333  0.00000000       0.019
   0.50000000  0.33333333  0.00000000       0.037
  -0.33333333  0.33333333  0.00000000       0.019
   0.50000000  0.50000000  0.00000000       0.009
   0.00000000  0.00000000  0.33333333       0.019
   0.16666667  0.00000000  0.33333333       0.037
   0.33333333  0.00000000  0.33333333       0.037
   0.50000000  0.00000000  0.33333333       0.037
  -0.33333333  0.00000000  0.33333333       0.037
  -0.16666667  0.00000000  0.33333333       0.037
   0.16666667  0.16666667  0.33333333       0.037
   0.33333333  0.16666667  0.33333333       0.037
   0.50000000  0.16666667  0.33333333       0.037
  -0.33333333  0.16666667  0.33333333       0.037
  -0.16666667  0.16666667  0.33333333       0.019
   0.16666667  0.33333333  0.33333333       0.037
   0.33333333  0.33333333  0.33333333       0.037
   0.50000000  0.33333333  0.33333333       0.037
  -0.33333333  0.33333333  0.33333333       0.019
   0.16666667  0.50000000  0.33333333       0.037
   0.33333333  0.50000000  0.33333333       0.037
   0.50000000  0.50000000  0.33333333       0.019
   0.16666667 -0.33333333  0.33333333       0.037
   0.33333333 -0.33333333  0.33333333       0.019
   0.16666667 -0.16666667  0.33333333       0.019
 
 position of ions in fractional coordinates (direct lattice) 
   0.66667500  0.33332500  0.56266100
   0.33338300  0.66661700  0.43686100
   0.33337100  0.66662900  0.06310200
   0.66664800  0.33335200  0.93704500
   0.00004600  0.99995400  0.49970100
   0.99998500  0.00001500  0.00054700
   0.16845700  0.33676800  0.75087800
   0.16844500  0.83155500  0.75081300
   0.66323200  0.83154300  0.75087800
   0.83129500  0.66298700  0.24918200
   0.83144900  0.16855100  0.24915000
   0.33701300  0.16870500  0.24918200
 
 position of ions in cartesian coordinates  (Angst):
  -2.44558100 -1.39441192 -4.44711019
  -2.44558100  1.42606003 -3.46291603
  -2.44558100  1.41414350 -0.50505835
  -2.44558100 -1.38214479 -7.40991533
  -2.44558100  4.25297905 -3.97158470
  -2.44558100 -4.23715629  0.01271763
  -1.23556866  0.73732885 -5.94517577
  -2.44558100  2.83393906 -5.95309621
  -3.65559334  0.73732885 -5.94517577
  -3.65438767 -0.70515921 -1.96911011
  -2.44558100 -2.80088694 -1.96042559
  -1.23677433 -0.70515921 -1.96911011
 


--------------------------------------------------------------------------------------------------------


 k-point   1 :   0.0000 0.0000 0.0000  plane waves:    4395
 k-point   2 :   0.1667 0.0000 0.0000  plane waves:    4415
 k-point   3 :   0.3333 0.0000 0.0000  plane waves:    4412
 k-point   4 :   0.5000 0.0000 0.0000  plane waves:    4444
 k-point   5 :   0.1667 0.1667 0.0000  plane waves:    4409
 k-point   6 :   0.3333 0.1667 0.0000  plane waves:    4421
 k-point   7 :   0.5000 0.1667 0.0000  plane waves:    4418
 k-point   8 :  -0.3333 0.1667 0.0000  plane waves:    4412
 k-point   9 :  -0.1667 0.1667 0.0000  plane waves:    4418
 k-point  10 :   0.3333 0.3333 0.0000  plane waves:    4429
 k-point  11 :   0.5000 0.3333 0.0000  plane waves:    4421
 k-point  12 :  -0.3333 0.3333 0.0000  plane waves:    4411
 k-point  13 :   0.5000 0.5000 0.0000  plane waves:    4438
 k-point  14 :   0.0000 0.0000 0.3333  plane waves:    4385
 k-point  15 :   0.1667 0.0000 0.3333  plane waves:    4400
 k-point  16 :   0.3333 0.0000 0.3333  plane waves:    4420
 k-point  17 :   0.5000 0.0000 0.3333  plane waves:    4416
 k-point  18 :  -0.3333 0.0000 0.3333  plane waves:    4416
 k-point  19 :  -0.1667 0.0000 0.3333  plane waves:    4394
 k-point  20 :   0.1667 0.1667 0.3333  plane waves:    4417
 k-point  21 :   0.3333 0.1667 0.3333  plane waves:    4416
 k-point  22 :   0.5000 0.1667 0.3333  plane waves:    4421
 k-point  23 :  -0.3333 0.1667 0.3333  plane waves:    4415
 k-point  24 :  -0.1667 0.1667 0.3333  plane waves:    4398
 k-point  25 :   0.1667 0.3333 0.3333  plane waves:    4421
 k-point  26 :   0.3333 0.3333 0.3333  plane waves:    4435
 k-point  27 :   0.5000 0.3333 0.3333  plane waves:    4424
 k-point  28 :  -0.3333 0.3333 0.3333  plane waves:    4412
 k-point  29 :   0.1667 0.5000 0.3333  plane waves:    4429
 k-point  30 :   0.3333 0.5000 0.3333  plane waves:    4425
 k-point  31 :   0.5000 0.5000 0.3333  plane waves:    4415
 k-point  32 :   0.1667-0.3333 0.3333  plane waves:    4420
 k-point  33 :   0.3333-0.3333 0.3333  plane waves:    4420
 k-point  34 :   0.1667-0.1667 0.3333  plane waves:    4406

 maximum and minimum number of plane-waves per node :      4444     4385

 maximum number of plane-waves:      4444
 maximum index in each direction: 
   IXMAX=    9   IYMAX=    9   IZMAX=   14
   IXMIN=   -9   IYMIN=   -9   IZMIN=  -15


 serial   3D FFT for wavefunctions
 parallel 3D FFT for charge:
    minimum data exchange during FFTs selected (reduces bandwidth)


 total amount of memory used by VASP MPI-rank0   222303. kBytes
=======================================================================

   base      :      30000. kBytes
   nonlr-proj:      17836. kBytes
   fftplans  :       5617. kBytes
   grid      :      20134. kBytes
   one-center:       1179. kBytes
   wavefun   :     147537. kBytes
 
     INWAV:  cpu time      0.0003: real time      0.0004
 Broyden mixing: mesh for mixing (old mesh)
   NGX = 19   NGY = 19   NGZ = 29
  (NGX  = 72   NGY  = 72   NGZ  =120)
  gives a total of  10469 points

 initial charge density was supplied:
 charge density of overlapping atoms calculated
 number of electron     149.0000000 magnetization      48.8000000
 keeping initial charge density in first step


--------------------------------------------------------------------------------------------------------


 Maximum index for non-local projection operator         11849
 Maximum index for augmentation-charges          8796 (set IRDMAX)


--------------------------------------------------------------------------------------------------------


 First call to EWALD:  gamma=   0.324
 Maximum number of real-space cells 3x 3x 2
 Maximum number of reciprocal cells 3x 3x 4

    FEWALD:  cpu time      0.0006: real time      0.0006


--------------------------------------- Iteration      1(   1)  ---------------------------------------


    POTLOK:  cpu time      0.0903: real time      0.1450
    SETDIJ:  cpu time      1.8944: real time      1.8950
     EDDAV:  cpu time      9.7709: real time      9.7792
 BZINTS: Fermi energy:   29.865951;  149.000000 electrons
         Band energy: 0.536822E+03;  BLOECHL correction:   -0.443576
       DOS:  cpu time      0.1722: real time      0.1723
    --------------------------------------------
      LOOP:  cpu time     11.9279: real time     11.9915

 eigenvalue-minimisations  : 22916
 total energy-change (2. order) : 0.2085199E+04  (-0.6216256E+04)
 number of electron     149.0000000 magnetization      48.8000000
 augmentation part      149.0000000 magnetization      48.8000000

 Free energy of the ion-electron system (eV)
  ---------------------------------------------------
  alpha Z        PSCENC =      1463.83178280
  Ewald energy   TEWEN  =    -16026.69781783
  -Hartree energ DENC   =     -5322.77905741
  -exchange      EXHF   =         0.00000000
  -V(xc)+E(xc)   XCENC  =       647.31557196
  PAW double counting   =     17234.81974126   -17716.60319640
  entropy T*S    EENTRO =         0.00000000
  eigenvalues    EBANDS =       536.82172085
  atomic energy  EATOM  =     21268.48990804
  Solvation  Ediel_sol  =         0.00000000
  ---------------------------------------------------
  free energy    TOTEN  =      2085.19865326 eV

  energy without entropy =     2085.19865326  energy(sigma->0) =     2085.19865326


--------------------------------------------------------------------------------------------------------




--------------------------------------- Iteration      1(   2)  ---------------------------------------


     EDDAV:  cpu time      9.0386: real time      9.0457
 BZINTS: Fermi energy:   13.798387;  149.000000 electrons
         Band energy:-0.129213E+04;  BLOECHL correction:   -0.213885
       DOS:  cpu time      0.1660: real time      0.1660
    --------------------------------------------
      LOOP:  cpu time      9.2046: real time      9.2117

 eigenvalue-minimisations  : 21176
 total energy-change (2. order) :-0.1828947E+04  (-0.1679851E+04)
 number of electron     149.0000000 magnetization      48.8000000
 augmentation part      149.0000000 magnetization      48.8000000

 Free energy of the ion-electron system (eV)
  ---------------------------------------------------
  alpha Z        PSCENC =      1463.83178280
  Ewald energy   TEWEN  =    -16026.69781783
  -Hartree energ DENC   =     -5322.77905741
  -exchange      EXHF   =         0.00000000
  -V(xc)+E(xc)   XCENC  =       647.31557196
  PAW double counting   =     17234.81974126   -17716.60319640
  entropy T*S    EENTRO =         0.00000000
  eigenvalues    EBANDS =     -1292.12556911
  atomic energy  EATOM  =     21268.48990804
  Solvation  Ediel_sol  =         0.00000000
  ---------------------------------------------------
  free energy    TOTEN  =       256.25136331 eV

  energy without entropy =      256.25136331  energy(sigma->0) =      256.25136331


--------------------------------------------------------------------------------------------------------




--------------------------------------- Iteration      1(   3)  ---------------------------------------


     EDDAV:  cpu time     10.3069: real time     10.3157
 BZINTS: Fermi energy:    9.913286;  149.000000 electrons
         Band energy:-0.160579E+04;  BLOECHL correction:   -0.034616
       DOS:  cpu time      0.1479: real time      0.1480
    --------------------------------------------
      LOOP:  cpu time     10.4548: real time     10.4637

 eigenvalue-minimisations  : 24880
 total energy-change (2. order) :-0.3136610E+03  (-0.2742910E+03)
 number of electron     149.0000000 magnetization      48.8000000
 augmentation part      149.0000000 magnetization      48.8000000

 Free energy of the ion-electron system (eV)
  ---------------------------------------------------
  alpha Z        PSCENC =      1463.83178280
  Ewald energy   TEWEN  =    -16026.69781783
  -Hartree energ DENC   =     -5322.77905741
  -exchange      EXHF   =         0.00000000
  -V(xc)+E(xc)   XCENC  =       647.31557196
  PAW double counting   =     17234.81974126   -17716.60319640
  entropy T*S    EENTRO =         0.00000000
  eigenvalues    EBANDS =     -1605.78656276
  atomic energy  EATOM  =     21268.48990804
  Solvation  Ediel_sol  =         0.00000000
  ---------------------------------------------------
  free energy    TOTEN  =       -57.40963035 eV

  energy without entropy =      -57.40963035  energy(sigma->0) =      -57.40963035


--------------------------------------------------------------------------------------------------------




--------------------------------------- Iteration      1(   4)  ---------------------------------------


     EDDAV:  cpu time     11.9730: real time     11.9840
 BZINTS: Fermi energy:    9.398107;  149.000000 electrons
         Band energy:-0.164738E+04;  BLOECHL correction:   -0.046615
       DOS:  cpu time      0.1464: real time      0.1465
    --------------------------------------------
      LOOP:  cpu time     12.1194: real time     12.1305

 eigenvalue-minimisations  : 29180
 total energy-change (2. order) :-0.4159566E+02  (-0.3710831E+02)
 number of electron     149.0000000 magnetization      48.8000000
 augmentation part      149.0000000 magnetization      48.8000000

 Free energy of the ion-electron system (eV)
  ---------------------------------------------------
  alpha Z        PSCENC =      1463.83178280
  Ewald energy   TEWEN  =    -16026.69781783
  -Hartree energ DENC   =     -5322.77905741
  -exchange      EXHF   =         0.00000000
  -V(xc)+E(xc)   XCENC  =       647.31557196
  PAW double counting   =     17234.81974126   -17716.60319640
  entropy T*S    EENTRO =         0.00000000
  eigenvalues    EBANDS =     -1647.38222711
  atomic energy  EATOM  =     21268.48990804
  Solvation  Ediel_sol  =         0.00000000
  ---------------------------------------------------
  free energy    TOTEN  =       -99.00529470 eV

  energy without entropy =      -99.00529470  energy(sigma->0) =      -99.00529470


--------------------------------------------------------------------------------------------------------




--------------------------------------- Iteration      1(   5)  ---------------------------------------


     EDDAV:  cpu time     12.3885: real time     12.3959
 BZINTS: Fermi energy:    9.361913;  149.000000 electrons
         Band energy:-0.165084E+04;  BLOECHL correction:   -0.043272
       DOS:  cpu time      0.1487: real time      0.1488
    CHARGE:  cpu time      0.2141: real time      0.2142
    MIXING:  cpu time      0.0016: real time      0.0016
    --------------------------------------------
      LOOP:  cpu time     12.7529: real time     12.7605

 eigenvalue-minimisations  : 30248
 total energy-change (2. order) :-0.3455821E+01  (-0.3373755E+01)
 number of electron     149.0000046 magnetization      32.3088043
 augmentation part       72.7638118 magnetization      22.7311475

 Broyden mixing:
  rms(total) = 0.11301E+02    rms(broyden)= 0.11301E+02
  rms(prec ) = 0.14422E+02
  weight for this iteration     100.00

 Free energy of the ion-electron system (eV)
  ---------------------------------------------------
  alpha Z        PSCENC =      1463.83178280
  Ewald energy   TEWEN  =    -16026.69781783
  -Hartree energ DENC   =     -5322.77905741
  -exchange      EXHF   =         0.00000000
  -V(xc)+E(xc)   XCENC  =       647.31557196
  PAW double counting   =     17234.81974126   -17716.60319640
  entropy T*S    EENTRO =         0.00000000
  eigenvalues    EBANDS =     -1650.83804822
  atomic energy  EATOM  =     21268.48990804
  Solvation  Ediel_sol  =         0.00000000
  ---------------------------------------------------
  free energy    TOTEN  =      -102.46111580 eV

  energy without entropy =     -102.46111580  energy(sigma->0) =     -102.46111580


--------------------------------------------------------------------------------------------------------




--------------------------------------- Iteration      1(   6)  ---------------------------------------


    POTLOK:  cpu time      0.0076: real time      0.0082
    SETDIJ:  cpu time      1.8853: real time      1.8858
     EDDAV:  cpu time     10.2434: real time     10.2510
 BZINTS: Fermi energy:    4.661846;  149.000000 electrons
         Band energy:-0.231996E+04;  BLOECHL correction:   -0.069642
       DOS:  cpu time      0.1506: real time      0.1507
    CHARGE:  cpu time      0.2088: real time      0.2088
    MIXING:  cpu time      0.0018: real time      0.0042
    --------------------------------------------
      LOOP:  cpu time     12.4975: real time     12.5088

 eigenvalue-minimisations  : 24032
 total energy-change (2. order) :-0.5296459E+03  (-0.4524709E+03)
 number of electron     149.0000065 magnetization      26.9205742
 augmentation part       90.9788533 magnetization      22.4024360

 Broyden mixing:
  rms(total) = 0.14824E+02    rms(broyden)= 0.14824E+02
  rms(prec ) = 0.24387E+02
  weight for this iteration     100.00

 eigenvalues of (default mixing * dielectric matrix)
  average eigenvalue GAMMA=   0.4826
  0.4826

 Free energy of the ion-electron system (eV)
  ---------------------------------------------------
  alpha Z        PSCENC =      1463.83178280
  Ewald energy   TEWEN  =    -16026.69781783
  -Hartree energ DENC   =     -4995.73773801
  -exchange      EXHF   =         0.00000000
  -V(xc)+E(xc)   XCENC  =       621.29274618
  PAW double counting   =     19373.61409527   -20016.94388258
  entropy T*S    EENTRO =         0.00000000
  eigenvalues    EBANDS =     -2319.95606033
  atomic energy  EATOM  =     21268.48990804
  Solvation  Ediel_sol  =         0.00000000
  ---------------------------------------------------
  free energy    TOTEN  =      -632.10696647 eV

  energy without entropy =     -632.10696647  energy(sigma->0) =     -632.10696647


--------------------------------------------------------------------------------------------------------




--------------------------------------- Iteration      1(   7)  ---------------------------------------


    POTLOK:  cpu time      0.0075: real time      0.0077
    SETDIJ:  cpu time      1.8863: real time      1.8869
     EDDAV:  cpu time     10.5256: real time     10.5315
 BZINTS: Fermi energy:    9.195564;  149.000000 electrons
         Band energy:-0.173937E+04;  BLOECHL correction:   -0.041455
       DOS:  cpu time      0.1493: real time      0.1494
    CHARGE:  cpu time      0.2093: real time      0.2093
    MIXING:  cpu time      0.0015: real time      0.0015
    --------------------------------------------
      LOOP:  cpu time     12.7795: real time     12.7864

 eigenvalue-minimisations  : 25288
 total energy-change (2. order) : 0.4326932E+03  (-0.3416137E+02)
 number of electron     149.0000055 magnetization      25.1097458
 augmentation part       72.3683480 magnetization      18.6568858

 Broyden mixing:
  rms(total) = 0.82578E+01    rms(broyden)= 0.82577E+01
  rms(prec ) = 0.13236E+02
  weight for this iteration     100.00

 eigenvalues of (default mixing * dielectric matrix)
  average eigenvalue GAMMA=   0.4721
  0.5831  0.3612

 Free energy of the ion-electron system (eV)
  ---------------------------------------------------
  alpha Z        PSCENC =      1463.83178280
  Ewald energy   TEWEN  =    -16026.69781783
  -Hartree energ DENC   =     -5211.44994783
  -exchange      EXHF   =         0.00000000
  -V(xc)+E(xc)   XCENC  =       627.94773833
  PAW double counting   =     20272.71812272   -20854.88696309
  entropy T*S    EENTRO =         0.00000000
  eigenvalues    EBANDS =     -1739.36663439
  atomic energy  EATOM  =     21268.48990804
  Solvation  Ediel_sol  =         0.00000000
  ---------------------------------------------------
  free energy    TOTEN  =      -199.41381126 eV

  energy without entropy =     -199.41381126  energy(sigma->0) =     -199.41381126


--------------------------------------------------------------------------------------------------------




--------------------------------------- Iteration      1(   8)  ---------------------------------------


    POTLOK:  cpu time      0.0071: real time      0.0082
    SETDIJ:  cpu time      1.8851: real time      1.8858
     EDDAV:  cpu time     11.4173: real time     11.4230
 BZINTS: Fermi energy:    8.990929;  149.000000 electrons
         Band energy:-0.179316E+04;  BLOECHL correction:   -0.038176
       DOS:  cpu time      0.1508: real time      0.1510
    CHARGE:  cpu time      0.2096: real time      0.2097
    MIXING:  cpu time      0.0015: real time      0.0015
    --------------------------------------------
      LOOP:  cpu time     13.6714: real time     13.6791

 eigenvalue-minimisations  : 27760
 total energy-change (2. order) : 0.8225922E+02  (-0.9477683E+01)
 number of electron     149.0000054 magnetization      23.6660349
 augmentation part       72.8202032 magnetization      17.2045771

 Broyden mixing:
  rms(total) = 0.74356E+01    rms(broyden)= 0.74354E+01
  rms(prec ) = 0.13560E+02
  weight for this iteration     100.00

 eigenvalues of (default mixing * dielectric matrix)
  average eigenvalue GAMMA=   0.4142
  0.6622  0.3958  0.1845

 Free energy of the ion-electron system (eV)
  ---------------------------------------------------
  alpha Z        PSCENC =      1463.83178280
  Ewald energy   TEWEN  =    -16026.69781783
  -Hartree energ DENC   =     -5110.31752524
  -exchange      EXHF   =         0.00000000
  -V(xc)+E(xc)   XCENC  =       622.44071571
  PAW double counting   =     20260.17146741   -20801.91510736
  entropy T*S    EENTRO =         0.00000000
  eigenvalues    EBANDS =     -1793.15801030
  atomic energy  EATOM  =     21268.48990804
  Solvation  Ediel_sol  =         0.00000000
  ---------------------------------------------------
  free energy    TOTEN  =      -117.15458677 eV

  energy without entropy =     -117.15458677  energy(sigma->0) =     -117.15458677


--------------------------------------------------------------------------------------------------------




--------------------------------------- Iteration      1(   9)  ---------------------------------------


    POTLOK:  cpu time      0.0073: real time      0.0078
    SETDIJ:  cpu time      1.9024: real time      1.9033
     EDDAV:  cpu time     11.8972: real time     11.9039
 BZINTS: Fermi energy:    7.759190;  149.000000 electrons
         Band energy:-0.189599E+04;  BLOECHL correction:   -0.036777
       DOS:  cpu time      0.1461: real time      0.1462
    CHARGE:  cpu time      0.2107: real time      0.2108
    MIXING:  cpu time      0.0016: real time      0.0016
    --------------------------------------------
      LOOP:  cpu time     14.1653: real time     14.1736

 eigenvalue-minimisations  : 28760
 total energy-change (2. order) : 0.9151444E+01  (-0.4918567E+01)
 number of electron     149.0000050 magnetization      15.3068171
 augmentation part       78.6610322 magnetization       7.8887344

 Broyden mixing:
  rms(total) = 0.58946E+01    rms(broyden)= 0.58945E+01
  rms(prec ) = 0.10983E+02
  weight for this iteration     100.00

 eigenvalues of (default mixing * dielectric matrix)
  average eigenvalue GAMMA=   0.4493
  1.0637  0.3105  0.3105  0.1126

 Free energy of the ion-electron system (eV)
  ---------------------------------------------------
  alpha Z        PSCENC =      1463.83178280
  Ewald energy   TEWEN  =    -16026.69781783
  -Hartree energ DENC   =     -5025.69630509
  -exchange      EXHF   =         0.00000000
  -V(xc)+E(xc)   XCENC  =       618.17837236
  PAW double counting   =     20245.07991441   -20755.20397373
  entropy T*S    EENTRO =         0.00000000
  eigenvalues    EBANDS =     -1895.98502355
  atomic energy  EATOM  =     21268.48990804
  Solvation  Ediel_sol  =         0.00000000
  ---------------------------------------------------
  free energy    TOTEN  =      -108.00314260 eV

  energy without entropy =     -108.00314260  energy(sigma->0) =     -108.00314260


--------------------------------------------------------------------------------------------------------




--------------------------------------- Iteration      1(  10)  ---------------------------------------


    POTLOK:  cpu time      0.0074: real time      0.0079
    SETDIJ:  cpu time      1.8993: real time      1.9001
     EDDAV:  cpu time     10.9685: real time     10.9734
 BZINTS: Fermi energy:    8.913390;  149.000000 electrons
         Band energy:-0.179640E+04;  BLOECHL correction:   -0.029909
       DOS:  cpu time      0.1452: real time      0.1453
    CHARGE:  cpu time      0.2088: real time      0.2089
    MIXING:  cpu time      0.0016: real time      0.0016
    --------------------------------------------
      LOOP:  cpu time     13.2309: real time     13.2371

 eigenvalue-minimisations  : 26160
 total energy-change (2. order) :-0.2945692E+01  (-0.8873543E+01)
 number of electron     149.0000054 magnetization      13.4277336
 augmentation part       71.1633103 magnetization       9.8703470

 Broyden mixing:
  rms(total) = 0.64178E+01    rms(broyden)= 0.64177E+01
  rms(prec ) = 0.10839E+02
  weight for this iteration     100.00

 eigenvalues of (default mixing * dielectric matrix)
  average eigenvalue GAMMA=   0.4653
  1.1985  0.3792  0.3792  0.2623  0.1070

 Free energy of the ion-electron system (eV)
  ---------------------------------------------------
  alpha Z        PSCENC =      1463.83178280
  Ewald energy   TEWEN  =    -16026.69781783
  -Hartree energ DENC   =     -5084.34418275
  -exchange      EXHF   =         0.00000000
  -V(xc)+E(xc)   XCENC  =       616.70624515
  PAW double counting   =     21155.72846885   -21708.26227650
  entropy T*S    EENTRO =         0.00000000
  eigenvalues    EBANDS =     -1796.40096192
  atomic energy  EATOM  =     21268.48990804
  Solvation  Ediel_sol  =         0.00000000
  ---------------------------------------------------
  free energy    TOTEN  =      -110.94883417 eV

  energy without entropy =     -110.94883417  energy(sigma->0) =     -110.94883417


--------------------------------------------------------------------------------------------------------




--------------------------------------- Iteration      1(  11)  ---------------------------------------


    POTLOK:  cpu time      0.0071: real time      0.0083
    SETDIJ:  cpu time      1.8831: real time      1.8837
     EDDAV:  cpu time     11.1788: real time     11.1858
 BZINTS: Fermi energy:    8.883433;  149.000000 electrons
         Band energy:-0.179788E+04;  BLOECHL correction:   -0.047280
       DOS:  cpu time      0.1484: real time      0.1484
    CHARGE:  cpu time      0.2106: real time      0.2108
    MIXING:  cpu time      0.0017: real time      0.0017
    --------------------------------------------
      LOOP:  cpu time     13.4296: real time     13.4386

 eigenvalue-minimisations  : 26912
 total energy-change (2. order) : 0.9176117E+01  (-0.2524052E+01)
 number of electron     149.0000054 magnetization       8.2874990
 augmentation part       70.8117272 magnetization       5.2128391

 Broyden mixing:
  rms(total) = 0.57067E+01    rms(broyden)= 0.57066E+01
  rms(prec ) = 0.96575E+01
  weight for this iteration     100.00

 eigenvalues of (default mixing * dielectric matrix)
  average eigenvalue GAMMA=   0.4559
  1.3443  0.5619  0.2994  0.2994  0.1237  0.1066

 Free energy of the ion-electron system (eV)
  ---------------------------------------------------
  alpha Z        PSCENC =      1463.83178280
  Ewald energy   TEWEN  =    -16026.69781783
  -Hartree energ DENC   =     -5075.99538459
  -exchange      EXHF   =         0.00000000
  -V(xc)+E(xc)   XCENC  =       615.81186623
  PAW double counting   =     21305.63286411   -21854.96513897
  entropy T*S    EENTRO =         0.00000000
  eigenvalues    EBANDS =     -1797.88079654
  atomic energy  EATOM  =     21268.48990804
  Solvation  Ediel_sol  =         0.00000000
  ---------------------------------------------------
  free energy    TOTEN  =      -101.77271675 eV

  energy without entropy =     -101.77271675  energy(sigma->0) =     -101.77271675


--------------------------------------------------------------------------------------------------------




--------------------------------------- Iteration      1(  12)  ---------------------------------------


    POTLOK:  cpu time      0.0074: real time      0.0082
    SETDIJ:  cpu time      1.8905: real time      1.8915
     EDDAV:  cpu time     10.4927: real time     10.4976
 BZINTS: Fermi energy:    7.709500;  149.000000 electrons
         Band energy:-0.191083E+04;  BLOECHL correction:   -0.099338
       DOS:  cpu time      0.1564: real time      0.1565
    CHARGE:  cpu time      0.2120: real time      0.2121
    MIXING:  cpu time      0.0017: real time      0.0017
    --------------------------------------------
      LOOP:  cpu time     12.7607: real time     12.7675

 eigenvalue-minimisations  : 24824
 total energy-change (2. order) :-0.1517194E+02  (-0.1209611E+01)
 number of electron     149.0000049 magnetization       5.0416850
 augmentation part       77.2165798 magnetization       2.7658277

 Broyden mixing:
  rms(total) = 0.54539E+01    rms(broyden)= 0.54539E+01
  rms(prec ) = 0.97763E+01
  weight for this iteration     100.00

 eigenvalues of (default mixing * dielectric matrix)
  average eigenvalue GAMMA=   0.5814
  2.0243  0.6260  0.6260  0.2807  0.2807  0.1043  0.1278

 Free energy of the ion-electron system (eV)
  ---------------------------------------------------
  alpha Z        PSCENC =      1463.83178280
  Ewald energy   TEWEN  =    -16026.69781783
  -Hartree energ DENC   =     -5001.24937107
  -exchange      EXHF   =         0.00000000
  -V(xc)+E(xc)   XCENC  =       611.73541744
  PAW double counting   =     21644.95919373   -22167.17984783
  entropy T*S    EENTRO =         0.00000000
  eigenvalues    EBANDS =     -1910.83392533
  atomic energy  EATOM  =     21268.48990804
  Solvation  Ediel_sol  =         0.00000000
  ---------------------------------------------------
  free energy    TOTEN  =      -116.94466004 eV

  energy without entropy =     -116.94466004  energy(sigma->0) =     -116.94466004


--------------------------------------------------------------------------------------------------------




--------------------------------------- Iteration      1(  13)  ---------------------------------------


    POTLOK:  cpu time      0.0070: real time      0.0081
    SETDIJ:  cpu time      1.8961: real time      1.8973
     EDDAV:  cpu time     10.9356: real time     10.9434
 BZINTS: Fermi energy:    7.672271;  149.000000 electrons
         Band energy:-0.187355E+04;  BLOECHL correction:   -0.041548
       DOS:  cpu time      0.1434: real time      0.1435
    CHARGE:  cpu time      0.2111: real time      0.2113
    MIXING:  cpu time      0.0018: real time      0.0018
    --------------------------------------------
      LOOP:  cpu time     13.1951: real time     13.2054

 eigenvalue-minimisations  : 25992
 total energy-change (2. order) : 0.2384455E+02  (-0.9645532E+00)
 number of electron     149.0000054 magnetization       4.9091877
 augmentation part       76.8769947 magnetization       3.2218448

 Broyden mixing:
  rms(total) = 0.41037E+01    rms(broyden)= 0.41037E+01
  rms(prec ) = 0.72345E+01
  weight for this iteration     100.00

 eigenvalues of (default mixing * dielectric matrix)
  average eigenvalue GAMMA=   0.5347
  2.0347  0.6479  0.6479  0.2802  0.2802  0.1036  0.1508  0.1320

 Free energy of the ion-electron system (eV)
  ---------------------------------------------------
  alpha Z        PSCENC =      1463.83178280
  Ewald energy   TEWEN  =    -16026.69781783
  -Hartree energ DENC   =     -5001.10259769
  -exchange      EXHF   =         0.00000000
  -V(xc)+E(xc)   XCENC  =       611.37585418
  PAW double counting   =     21933.57909466   -22469.02150675
  entropy T*S    EENTRO =         0.00000000
  eigenvalues    EBANDS =     -1873.55483063
  atomic energy  EATOM  =     21268.48990804
  Solvation  Ediel_sol  =         0.00000000
  ---------------------------------------------------
  free energy    TOTEN  =       -93.10011321 eV

  energy without entropy =      -93.10011321  energy(sigma->0) =      -93.10011321


--------------------------------------------------------------------------------------------------------




--------------------------------------- Iteration      1(  14)  ---------------------------------------


    POTLOK:  cpu time      0.0077: real time      0.0080
    SETDIJ:  cpu time      1.9035: real time      1.9049
     EDDAV:  cpu time     10.1898: real time     10.1975
 BZINTS: Fermi energy:    8.378543;  149.000000 electrons
         Band energy:-0.185773E+04;  BLOECHL correction:   -0.050386
       DOS:  cpu time      0.1466: real time      0.1467
    CHARGE:  cpu time      0.2112: real time      0.2113
    MIXING:  cpu time      0.0020: real time      0.0020
    --------------------------------------------
      LOOP:  cpu time     12.4608: real time     12.4704

 eigenvalue-minimisations  : 23912
 total energy-change (2. order) :-0.4228562E+01  (-0.2356458E+01)
 number of electron     149.0000056 magnetization       4.5226684
 augmentation part       72.3006810 magnetization       3.1433898

 Broyden mixing:
  rms(total) = 0.47758E+01    rms(broyden)= 0.47758E+01
  rms(prec ) = 0.85962E+01
  weight for this iteration     100.00

 eigenvalues of (default mixing * dielectric matrix)
  average eigenvalue GAMMA=   0.5565
  2.0861  1.0024  0.6168  0.3667  0.3667  0.2367  0.1032  0.1150  0.1150

 Free energy of the ion-electron system (eV)
  ---------------------------------------------------
  alpha Z        PSCENC =      1463.83178280
  Ewald energy   TEWEN  =    -16026.69781783
  -Hartree energ DENC   =     -5014.39788255
  -exchange      EXHF   =         0.00000000
  -V(xc)+E(xc)   XCENC  =       611.93559615
  PAW double counting   =     21950.78004880   -22493.54371259
  entropy T*S    EENTRO =         0.00000000
  eigenvalues    EBANDS =     -1857.72659789
  atomic energy  EATOM  =     21268.48990804
  Solvation  Ediel_sol  =         0.00000000
  ---------------------------------------------------
  free energy    TOTEN  =       -97.32867509 eV

  energy without entropy =      -97.32867509  energy(sigma->0) =      -97.32867509


--------------------------------------------------------------------------------------------------------




--------------------------------------- Iteration      1(  15)  ---------------------------------------


    POTLOK:  cpu time      0.0070: real time      0.0079
    SETDIJ:  cpu time      1.9009: real time      1.9019
     EDDAV:  cpu time     10.4894: real time     10.4961
 BZINTS: Fermi energy:    7.608640;  149.000000 electrons
         Band energy:-0.188435E+04;  BLOECHL correction:   -0.091177
       DOS:  cpu time      0.1446: real time      0.1446
    CHARGE:  cpu time      0.2143: real time      0.2149
    MIXING:  cpu time      0.0019: real time      0.0019
    --------------------------------------------
      LOOP:  cpu time     12.7583: real time     12.7674

 eigenvalue-minimisations  : 24824
 total energy-change (2. order) :-0.2060466E+01  (-0.6089843E+00)
 number of electron     149.0000050 magnetization       4.0223991
 augmentation part       77.2454715 magnetization       2.6213321

 Broyden mixing:
  rms(total) = 0.48272E+01    rms(broyden)= 0.48271E+01
  rms(prec ) = 0.87112E+01
  weight for this iteration     100.00

 eigenvalues of (default mixing * dielectric matrix)
  average eigenvalue GAMMA=   0.5911
  1.9262  1.5287  0.7074  0.5216  0.3390  0.3390  0.2189  0.1024  0.1142  0.1142

 Free energy of the ion-electron system (eV)
  ---------------------------------------------------
  alpha Z        PSCENC =      1463.83178280
  Ewald energy   TEWEN  =    -16026.69781783
  -Hartree energ DENC   =     -5009.66159647
  -exchange      EXHF   =         0.00000000
  -V(xc)+E(xc)   XCENC  =       611.70779120
  PAW double counting   =     21819.45470341   -22342.16309176
  entropy T*S    EENTRO =         0.00000000
  eigenvalues    EBANDS =     -1884.35082028
  atomic energy  EATOM  =     21268.48990804
  Solvation  Ediel_sol  =         0.00000000
  ---------------------------------------------------
  free energy    TOTEN  =       -99.38914091 eV

  energy without entropy =      -99.38914091  energy(sigma->0) =      -99.38914091


--------------------------------------------------------------------------------------------------------




--------------------------------------- Iteration      1(  16)  ---------------------------------------


    POTLOK:  cpu time      0.0070: real time      0.0081
    SETDIJ:  cpu time      1.8991: real time      1.9002
     EDDAV:  cpu time      9.5973: real time      9.6043
 BZINTS: Fermi energy:    8.163653;  149.000000 electrons
         Band energy:-0.186077E+04;  BLOECHL correction:   -0.015523
       DOS:  cpu time      0.1499: real time      0.1500
    CHARGE:  cpu time      0.2120: real time      0.2122
    MIXING:  cpu time      0.0020: real time      0.0020
    --------------------------------------------
      LOOP:  cpu time     11.8672: real time     11.8768

 eigenvalue-minimisations  : 22240
 total energy-change (2. order) : 0.8733728E+01  (-0.2289817E+00)
 number of electron     149.0000054 magnetization       3.6036833
 augmentation part       73.4566874 magnetization       2.8886824

 Broyden mixing:
  rms(total) = 0.20920E+01    rms(broyden)= 0.20920E+01
  rms(prec ) = 0.35866E+01
  weight for this iteration     100.00

 eigenvalues of (default mixing * dielectric matrix)
  average eigenvalue GAMMA=   0.5936
  2.0912  1.4197  0.8604  0.4836  0.4836  0.3221  0.3221  0.2162  0.1024  0.1142
  0.1142

 Free energy of the ion-electron system (eV)
  ---------------------------------------------------
  alpha Z        PSCENC =      1463.83178280
  Ewald energy   TEWEN  =    -16026.69781783
  -Hartree energ DENC   =     -5024.06176720
  -exchange      EXHF   =         0.00000000
  -V(xc)+E(xc)   XCENC  =       612.29603849
  PAW double counting   =     21761.98510087   -22285.73251892
  entropy T*S    EENTRO =         0.00000000
  eigenvalues    EBANDS =     -1860.76613933
  atomic energy  EATOM  =     21268.48990804
  Solvation  Ediel_sol  =         0.00000000
  ---------------------------------------------------
  free energy    TOTEN  =       -90.65541309 eV

  energy without entropy =      -90.65541309  energy(sigma->0) =      -90.65541309


--------------------------------------------------------------------------------------------------------




[...]
  209        strkin                                0.001088                            1   3
  210          m_sumb_d                              0.000013                          1   4
  211        strelo                                0.001426                            1   3
  212          m_sumb_d                              0.000010                          2   4
  213        strnlr                                3.654444                            1   3
  214          rspher_all                            0.141284                          9   4
  215          phaser                                0.986569                        306   4
  216          rpro_isp                              2.516824                        306   4
  217            fftwav_mpi                            0.549752                    17748   5
  218              fftwav                                0.527774                  17748   6
  219                fft3d                                 0.115708                17748   7
  220            rpromu_acc                            1.051267                     4896   5
  221          m_sumb_d                              0.000013                          1   4
  222        fft3d_mpi                             0.003153                           22   3
  223          fftbrc_mpi                            0.002475                         22   4
  224            fftbas_plan_mpi                       0.002464                       22   5
  225              map_forward                           0.000877                     20   6
  226                map_gather                            0.000205                   10   7
  227                m_alltoallv_z                         0.000123                   10   7
  228                map_scatter                           0.000410                   10   7
  229              map_backward                          0.000989                     24   6
  230                map_gather                            0.000241                   12   7
  231                m_alltoallv_z                         0.000129                   12   7
  232                map_scatter                           0.000453                   12   7
  233        m_sumb_d                              0.000026                            5   3
  234        forhar                                0.001305                            2   3
  235          m_sumb_d                              0.000044                          2   4
  236        strehar                               0.000935                            1   3
  237          m_sumb_d                              0.000009                          1   4
  238        chggra                                0.000760                            1   3
  239          fft3d_mpi                             0.000448                          3   4
  240            fftbrc_mpi                            0.000353                        3   5
  241              fftbas_plan_mpi                       0.000352                      3   6
  242                map_forward                           0.000170                    4   7
  243                  map_gather                            0.000040                  2   8
  244                  m_alltoallv_z                         0.000024                  2   8
  245                  map_scatter                           0.000076                  2   8
  246                map_backward                          0.000096                    2   7
  247                  map_gather                            0.000019                  1   8
  248                  m_alltoallv_z                         0.000010                  1   8
  249                  map_scatter                           0.000052                  1   8
  250          m_sumb_d                              0.000009                          2   4
  251          pothar                                0.000072                          1   4
  252            m_sumb_d                              0.000004                        1   5
  253        brmix                                 0.005850                            1   3
  254          m_sumb_d                              0.000037                          6   4
  255          brpre                                 0.000020                          2   4
  256          setg0                                 0.000540                          1   4
  257          broyd                                 0.004604                          1   4
  258            m_sumb_d                              0.000262                       49   5
  259            brget                                 0.000888                      219   5
  260            brsav                                 0.000188                       47   5
  261        m_bcast_d                             0.000023                            2   3
  262      potlok                                0.021243                              2   2
  263        fft3d_mpi                             0.013738                           36   3
  264          fftbrc_mpi                            0.011546                         36   4
  265            fftbas_plan_mpi                       0.011532                       36   5
  266              map_forward                           0.003354                     40   6
  267                map_gather                            0.001184                   24   7
  268                m_alltoallv_z                         0.001006                   24   7
  269                map_scatter                           0.000980                   24   7
  270              map_backward                          0.002900                     32   6
  271                map_gather                            0.000945                   16   7
  272                m_alltoallv_z                         0.000911                   16   7
  273                map_scatter                           0.000872                   16   7
  274              dfftw_execute                         0.003701                     30   6
  275        m_sumb_d                              0.000027                            5   3
  276        pothar                                0.000811                            2   3
  277          m_sumb_d                              0.000038                          2   4
  278        m_bcast_d                             0.001342                            4   3
  279      potlok_metagga                        0.000000                              1   2
  280      set_dd_magatom                        0.000003                              1   2
  281      set_dd_paw                            1.871127                              1   2
  282        m_sumb_d                              0.437690                            7   3
  283      augmentation_charge                   0.010165                              1   2
  284        fft3d_mpi                             0.002264                            2   3
  285          fftbrc_mpi                            0.001893                          2   4
  286            fftbas_plan_mpi                       0.001890                        2   5
  287              dfftw_execute                         0.000845                      6   6
  288              map_backward                          0.000881                      4   6
  289                map_gather                            0.000346                    2   7
  290                m_alltoallv_z                         0.000300                    2   7
  291                map_scatter                           0.000231                    2   7
  292      densta                                5.861985                              1   2
 
 Flat profile
 ============
 
             routine name                   CPU           calls
 ---------------------------------------------------------------
 lapack                                283.929191      592070
 eddav                                 282.566602         152
 m_sumb_d                              246.282574     1799040
 raccmu_                               231.843963      592070
 set_dd_paw                            216.594181         150
 redis_pw                              129.124866     3129052
 m_alltoall_d                           57.768499     8261576
 phaser                                 33.885356       10778
 densta                                 28.152642         153
 eccp                                   27.535722      299744
 redis_proj                             26.183712     3965372
 fft3d                                  24.594216     3326399
 fftwav                                 20.208855     2190403
 orth1                                  18.777139     1776482
 racc0mu_acc                            17.098966      592070
 w1_copy                                16.618386     3407988
 overl                                  16.318619     1972316
 rpromu_acc                             13.937579      444102
 hamiltmu                               13.047703      592070
 m_bcast_z                              12.604122      599958
 soft_charge                            12.517765         148
 init_acc                               11.954748           1
 setup_precond                          10.816819      299744
 m_bcast_d                               9.682661     1184445
 overl_mu                                9.068132      592070
 ggemm                                   7.889483      747110
 total_time                              7.373610           1
 vhamil                                  5.257958     1135996
 kinhamil                                5.194888     1135996
 pw_charge                               4.985948      192519
 depsum                                  4.809884         148
 fftext_mpi                              4.807694     1135996
 apply_precond                           4.602023      836252
 newband                                 4.583902      602406
 fftwav_mpi                              2.881639     2190403
 acc_init_cublas                         2.467805           1
 setdij_                                 1.302997         176
 rpro_isp                                1.272690         442
 augmentation_charge                     1.165965         149
 set_charge                              0.810600         148
 acc_init_cusolver                       0.788481           1
 fft3d_mpi                               0.550806     1140515
 potlok                                  0.427652         150
 w1_projall                              0.413517      437030
 broyd                                   0.398045         148
 lincom                                  0.388049       10404
 elmin                                   0.267861           1
 m_alltoallv_z                           0.262441        5115
 sphpro_fast                             0.233964           2
 rspher_all                              0.209943          14
 map_scatter                             0.209184        5115
 dfftw_execute                           0.178069        1860
 fftbas_plan_mpi                         0.166507        4519
 map_gather                              0.159933        5115
 acc_cufft_makeplan                      0.134626          19
 brget                                   0.119004       30348
 truncate_high_frequency_w1              0.114552     1435740
 brmix                                   0.096240         148
 setg0                                   0.082351         150
 proall                                  0.066946           1
 orthch                                  0.034037           1
 brsav                                   0.032291        8539
 map_backward                            0.027347        4810
 map_forward                             0.026476        4228
 choleski                                0.020997          68
 force_and_stress                        0.017348           1
 pothar                                  0.011721         151
 strnlr                                  0.009753           1
 inisym                                  0.004339           1
 fft_gq                                  0.003738         148
 stufak                                  0.003616           1
 fornlr                                  0.003365           1
 brpre                                   0.003012         296
 fftbrc_mpi                              0.002231        4519
 strelo                                  0.001416           1
 forhar                                  0.001261           2
 strkin                                  0.001075           1
 strehar                                 0.000926           1
 forloc                                  0.000663           1
 vectorpot                               0.000630         149
 set_dd_magatom                          0.000599         150
 fewald                                  0.000338           1
 chggra                                  0.000231           1
 rsp                                     0.000194           1
 brgrid                                  0.000135           1
 fordep                                  0.000045           1
 crpa_reader                             0.000028           1
 rcp                                     0.000019           1
 potlok_metagga                          0.000017         149
 posmap                                  0.000017           2
 acc_cufft_makeplans                     0.000009           3
 rotate_active_occupied_orbital          0.000000           1
 redis_pw_over_bands                     0.000000           1
 ---------------------------------------------------------------
  summed up times     1835.996150016785     
 
 Accumulative profile
 ====================
 
             routine name                   CPU           calls
 ---------------------------------------------------------------
 total_time                           1835.996150           1
 elmin                                1794.675787           1
 eddav                                1459.230206         152
 hamiltmu                              294.617096      592070
 lapack                                283.929191      592070
 set_dd_paw                            282.737396         150
 raccmu_                               258.011061      592070
 m_sumb_d                              246.282574     1799040
 redis_pw                              157.520719     3129052
 newband                                66.341127      602406
 m_alltoall_d                           57.768499     8261576
 redis_proj                             55.556359     3965372
 fftwav_mpi                             39.718677     2190403
 fftwav                                 36.837038     2190403
 phaser                                 33.885356       10778
 set_charge                             31.040091         148
 densta                                 28.152642         153
 eccp                                   27.535722      299744
 fft3d                                  24.594216     3326399
 soft_charge                            23.775495         148
 orth1                                  18.777139     1776482
 kinhamil                               18.300375     1135996
 racc0mu_acc                            17.098966      592070
 w1_copy                                16.618386     3407988
 overl                                  16.318619     1972316
 rpromu_acc                             13.937579      444102
 fftext_mpi                             13.105486     1135996
 w1_projall                             12.934888      437030
 m_bcast_z                              12.604122      599958
 init_acc                               11.954748           1
 setup_precond                          10.816819      299744
 m_bcast_d                               9.682661     1184445
 fft3d_mpi                               9.549027     1140515
 overl_mu                                9.068132      592070
 ggemm                                   7.889483      747110
 force_and_stress                        7.181271           1
 vhamil                                  5.257958     1135996
 pw_charge                               4.985948      192519
 depsum                                  4.831474         148
 apply_precond                           4.602023      836252
 strnlr                                  3.654444           1
 rpro_isp                                3.451768         442
 acc_init_cublas                         2.467805           1
 augmentation_charge                     1.502575         149
 setdij_                                 1.337729         176
 fornlr                                  1.215529           1
 potlok                                  1.175422         150
 fftbrc_mpi                              1.032189        4519
 fftbas_plan_mpi                         1.029958        4519
 acc_init_cusolver                       0.788481           1
 brmix                                   0.772006         148
 broyd                                   0.586093         148
 orthch                                  0.455268           1
 lincom                                  0.388049       10404
 map_backward                            0.359050        4810
 map_forward                             0.326332        4228
 proall                                  0.272122           1
 m_alltoallv_z                           0.262441        5115
 sphpro_fast                             0.242001           2
 rspher_all                              0.209943          14
 map_scatter                             0.209184        5115
 dfftw_execute                           0.178069        1860
 fft_gq                                  0.164049         148
 map_gather                              0.159933        5115
 acc_cufft_makeplans                     0.134635           3
 acc_cufft_makeplan                      0.134626          19
 brget                                   0.119004       30348
 truncate_high_frequency_w1              0.114552     1435740
 setg0                                   0.082351         150
 fordep                                  0.045052           1
 brsav                                   0.032291        8539
 choleski                                0.020997          68
 pothar                                  0.012951         151
 inisym                                  0.004356           1
 stufak                                  0.003616           1
 brpre                                   0.003012         296
 strelo                                  0.001426           1
 forhar                                  0.001305           2
 strkin                                  0.001088           1
 strehar                                 0.000935           1
 chggra                                  0.000760           1
 forloc                                  0.000683           1
 vectorpot                               0.000630         149
 fewald                                  0.000627           1
 set_dd_magatom                          0.000599         150
 rsp                                     0.000194           1
 brgrid                                  0.000135           1
 crpa_reader                             0.000028           1
 rcp                                     0.000019           1
 potlok_metagga                          0.000017         149
 posmap                                  0.000017           2
 rotate_active_occupied_orbital          0.000000           1
 redis_pw_over_bands                     0.000000           1
 ---------------------------------------------------------------
 
Profiling took   7.033705  3.448803  0.003395  0.003321 seconds
Profiling took   4.425928 seconds
