   8   8   1   0
  0.1871078E+02  0.6078034E-09  0.6078034E-09  0.4630521E-09  0.5000000E-15
   1.0000000000000000E-004
  CAR 
 unknown system                          
     14.94083225    -43.39981860  301      3.25090770      1.00000000
    -43.400  0.0000E+00  0.0000E+00  0.0000E+00  0.0000E+00
    -43.205  0.0000E+00  0.0000E+00  0.0000E+00  0.0000E+00
    -43.011  0.0000E+00  0.0000E+00  0.0000E+00  0.0000E+00
    -42.816  0.0000E+00  0.0000E+00  0.0000E+00  0.0000E+00
    -42.622  0.0000E+00  0.0000E+00  0.0000E+00  0.0000E+00
    -42.427  0.0000E+00  0.0000E+00  0.0000E+00  0.0000E+00
    -42.233  0.0000E+00  0.0000E+00  0.0000E+00  0.0000E+00
    -42.039  0.0000E+00  0.0000E+00  0.0000E+00  0.0000E+00
    -41.844  0.0000E+00  0.0000E+00  0.0000E+00  0.0000E+00
    -41.650  0.0000E+00  0.0000E+00  0.0000E+00  0.0000E+00
    -41.455  0.0000E+00  0.0000E+00  0.0000E+00  0.0000E+00
    -41.261  0.0000E+00  0.0000E+00  0.0000E+00  0.0000E+00
    -41.066  0.0000E+00  0.0000E+00  0.0000E+00  0.0000E+00
    -40.872  0.0000E+00  0.0000E+00  0.0000E+00  0.0000E+00
    -40.677  0.1558E+00  0.0000E+00  0.3030E-01  0.0000E+00
    -40.483  0.0000E+00  0.0000E+00  0.3030E-01  0.0000E+00
    -40.288  0.0000E+00  0.0000E+00  0.3030E-01  0.0000E+00
    -40.094  0.0000E+00  0.0000E+00  0.3030E-01  0.0000E+00
    -39.899  0.0000E+00  0.0000E+00  0.3030E-01  0.0000E+00
    -39.705  0.0000E+00  0.0000E+00  0.3030E-01  0.0000E+00
    -39.510  0.0000E+00  0.0000E+00  0.3030E-01  0.0000E+00
    -39.316  0.1558E+00  0.1558E+00  0.6061E-01  0.3030E-01
    -39.122  0.6233E+00  0.6233E+00  0.1818E+00  0.1515E+00
    -38.927  0.0000E+00  0.0000E+00  0.1818E+00  0.1515E+00
    -38.733  0.1558E+00  0.1558E+00  0.2121E+00  0.1818E+00
    -38.538  0.0000E+00  0.0000E+00  0.2121E+00  0.1818E+00
    -38.344  0.0000E+00  0.0000E+00  0.2121E+00  0.1818E+00
    -38.149  0.0000E+00  0.0000E+00  0.2121E+00  0.1818E+00
    -37.955  0.0000E+00  0.0000E+00  0.2121E+00  0.1818E+00
    -37.760  0.0000E+00  0.0000E+00  0.2121E+00  0.1818E+00
    -37.566  0.0000E+00  0.0000E+00  0.2121E+00  0.1818E+00
    -37.371  0.0000E+00  0.0000E+00  0.2121E+00  0.1818E+00
    -37.177  0.0000E+00  0.0000E+00  0.2121E+00  0.1818E+00
    -36.982  0.0000E+00  0.1558E+00  0.2121E+00  0.2121E+00
    -36.788  0.0000E+00  0.0000E+00  0.2121E+00  0.2121E+00
    -36.593  0.0000E+00  0.0000E+00  0.2121E+00  0.2121E+00
    -36.399  0.0000E+00  0.0000E+00  0.2121E+00  0.2121E+00
    -36.204  0.0000E+00  0.0000E+00  0.2121E+00  0.2121E+00
    -36.010  0.0000E+00  0.0000E+00  0.2121E+00  0.2121E+00
    -35.816  0.0000E+00  0.0000E+00  0.2121E+00  0.2121E+00
    -35.621  0.0000E+00  0.0000E+00  0.2121E+00  0.2121E+00
    -35.427  0.0000E+00  0.0000E+00  0.2121E+00  0.2121E+00
    -35.232  0.0000E+00  0.0000E+00  0.2121E+00  0.2121E+00
    -35.038  0.0000E+00  0.0000E+00  0.2121E+00  0.2121E+00
    -34.843  0.0000E+00  0.0000E+00  0.2121E+00  0.2121E+00
    -34.649  0.0000E+00  0.0000E+00  0.2121E+00  0.2121E+00
    -34.454  0.0000E+00  0.0000E+00  0.2121E+00  0.2121E+00
    -34.260  0.0000E+00  0.0000E+00  0.2121E+00  0.2121E+00
    -34.065  0.0000E+00  0.0000E+00  0.2121E+00  0.2121E+00
    -33.871  0.0000E+00  0.0000E+00  0.2121E+00  0.2121E+00
    -33.676  0.0000E+00  0.0000E+00  0.2121E+00  0.2121E+00
    -33.482  0.0000E+00  0.0000E+00  0.2121E+00  0.2121E+00
    -33.287  0.0000E+00  0.0000E+00  0.2121E+00  0.2121E+00
    -33.093  0.0000E+00  0.0000E+00  0.2121E+00  0.2121E+00
    -32.899  0.0000E+00  0.0000E+00  0.2121E+00  0.2121E+00
    -32.704  0.0000E+00  0.0000E+00  0.2121E+00  0.2121E+00
    -32.510  0.0000E+00  0.0000E+00  0.2121E+00  0.2121E+00
    -32.315  0.0000E+00  0.0000E+00  0.2121E+00  0.2121E+00
    -32.121  0.0000E+00  0.0000E+00  0.2121E+00  0.2121E+00
    -31.926  0.0000E+00  0.0000E+00  0.2121E+00  0.2121E+00
    -31.732  0.0000E+00  0.0000E+00  0.2121E+00  0.2121E+00
    -31.537  0.0000E+00  0.0000E+00  0.2121E+00  0.2121E+00
    -31.343  0.0000E+00  0.0000E+00  0.2121E+00  0.2121E+00
    -31.148  0.0000E+00  0.0000E+00  0.2121E+00  0.2121E+00
    -30.954  0.0000E+00  0.0000E+00  0.2121E+00  0.2121E+00
    -30.759  0.0000E+00  0.0000E+00  0.2121E+00  0.2121E+00
    -30.565  0.0000E+00  0.0000E+00  0.2121E+00  0.2121E+00
    -30.370  0.0000E+00  0.0000E+00  0.2121E+00  0.2121E+00
    -30.176  0.0000E+00  0.0000E+00  0.2121E+00  0.2121E+00
    -29.981  0.0000E+00  0.0000E+00  0.2121E+00  0.2121E+00
    -29.787  0.0000E+00  0.0000E+00  0.2121E+00  0.2121E+00
    -29.593  0.0000E+00  0.0000E+00  0.2121E+00  0.2121E+00
    -29.398  0.0000E+00  0.0000E+00  0.2121E+00  0.2121E+00
    -29.204  0.0000E+00  0.0000E+00  0.2121E+00  0.2121E+00
    -29.009  0.0000E+00  0.0000E+00  0.2121E+00  0.2121E+00
    -28.815  0.0000E+00  0.0000E+00  0.2121E+00  0.2121E+00
    -28.620  0.0000E+00  0.0000E+00  0.2121E+00  0.2121E+00
    -28.426  0.0000E+00  0.0000E+00  0.2121E+00  0.2121E+00
    -28.231  0.0000E+00  0.0000E+00  0.2121E+00  0.2121E+00
    -28.037  0.0000E+00  0.0000E+00  0.2121E+00  0.2121E+00
    -27.842  0.0000E+00  0.0000E+00  0.2121E+00  0.2121E+00
    -27.648  0.0000E+00  0.0000E+00  0.2121E+00  0.2121E+00
    -27.453  0.0000E+00  0.0000E+00  0.2121E+00  0.2121E+00
    -27.259  0.0000E+00  0.0000E+00  0.2121E+00  0.2121E+00
    -27.064  0.0000E+00  0.0000E+00  0.2121E+00  0.2121E+00
    -26.870  0.0000E+00  0.0000E+00  0.2121E+00  0.2121E+00
    -26.675  0.0000E+00  0.0000E+00  0.2121E+00  0.2121E+00
    -26.481  0.0000E+00  0.0000E+00  0.2121E+00  0.2121E+00
    -26.287  0.0000E+00  0.0000E+00  0.2121E+00  0.2121E+00
    -26.092  0.0000E+00  0.0000E+00  0.2121E+00  0.2121E+00
    -25.898  0.0000E+00  0.0000E+00  0.2121E+00  0.2121E+00
    -25.703  0.0000E+00  0.0000E+00  0.2121E+00  0.2121E+00
    -25.509  0.0000E+00  0.0000E+00  0.2121E+00  0.2121E+00
    -25.314  0.0000E+00  0.0000E+00  0.2121E+00  0.2121E+00
    -25.120  0.0000E+00  0.0000E+00  0.2121E+00  0.2121E+00
    -24.925  0.0000E+00  0.0000E+00  0.2121E+00  0.2121E+00
    -24.731  0.0000E+00  0.0000E+00  0.2121E+00  0.2121E+00
    -24.536  0.0000E+00  0.0000E+00  0.2121E+00  0.2121E+00
    -24.342  0.0000E+00  0.0000E+00  0.2121E+00  0.2121E+00
    -24.147  0.0000E+00  0.0000E+00  0.2121E+00  0.2121E+00
    -23.953  0.0000E+00  0.0000E+00  0.2121E+00  0.2121E+00
    -23.758  0.0000E+00  0.0000E+00  0.2121E+00  0.2121E+00
    -23.564  0.0000E+00  0.0000E+00  0.2121E+00  0.2121E+00
    -23.370  0.0000E+00  0.0000E+00  0.2121E+00  0.2121E+00
    -23.175  0.0000E+00  0.0000E+00  0.2121E+00  0.2121E+00
    -22.981  0.0000E+00  0.0000E+00  0.2121E+00  0.2121E+00
    -22.786  0.0000E+00  0.0000E+00  0.2121E+00  0.2121E+00
    -22.592  0.0000E+00  0.0000E+00  0.2121E+00  0.2121E+00
    -22.397  0.0000E+00  0.0000E+00  0.2121E+00  0.2121E+00
    -22.203  0.0000E+00  0.0000E+00  0.2121E+00  0.2121E+00
    -22.008  0.0000E+00  0.0000E+00  0.2121E+00  0.2121E+00
    -21.814  0.0000E+00  0.0000E+00  0.2121E+00  0.2121E+00
    -21.619  0.0000E+00  0.0000E+00  0.2121E+00  0.2121E+00
    -21.425  0.0000E+00  0.0000E+00  0.2121E+00  0.2121E+00
    -21.230  0.0000E+00  0.0000E+00  0.2121E+00  0.2121E+00
    -21.036  0.0000E+00  0.0000E+00  0.2121E+00  0.2121E+00
    -20.841  0.0000E+00  0.0000E+00  0.2121E+00  0.2121E+00
    -20.647  0.0000E+00  0.0000E+00  0.2121E+00  0.2121E+00
    -20.452  0.0000E+00  0.0000E+00  0.2121E+00  0.2121E+00
    -20.258  0.0000E+00  0.0000E+00  0.2121E+00  0.2121E+00
    -20.064  0.0000E+00  0.0000E+00  0.2121E+00  0.2121E+00
    -19.869  0.0000E+00  0.0000E+00  0.2121E+00  0.2121E+00
    -19.675  0.0000E+00  0.0000E+00  0.2121E+00  0.2121E+00
    -19.480  0.0000E+00  0.0000E+00  0.2121E+00  0.2121E+00
    -19.286  0.0000E+00  0.0000E+00  0.2121E+00  0.2121E+00
    -19.091  0.0000E+00  0.0000E+00  0.2121E+00  0.2121E+00
    -18.897  0.0000E+00  0.0000E+00  0.2121E+00  0.2121E+00
    -18.702  0.0000E+00  0.0000E+00  0.2121E+00  0.2121E+00
    -18.508  0.0000E+00  0.0000E+00  0.2121E+00  0.2121E+00
    -18.313  0.0000E+00  0.0000E+00  0.2121E+00  0.2121E+00
    -18.119  0.0000E+00  0.0000E+00  0.2121E+00  0.2121E+00
    -17.924  0.0000E+00  0.0000E+00  0.2121E+00  0.2121E+00
    -17.730  0.0000E+00  0.0000E+00  0.2121E+00  0.2121E+00
    -17.535  0.0000E+00  0.0000E+00  0.2121E+00  0.2121E+00
    -17.341  0.0000E+00  0.0000E+00  0.2121E+00  0.2121E+00
    -17.147  0.0000E+00  0.0000E+00  0.2121E+00  0.2121E+00
    -16.952  0.0000E+00  0.0000E+00  0.2121E+00  0.2121E+00
    -16.758  0.0000E+00  0.0000E+00  0.2121E+00  0.2121E+00
    -16.563  0.0000E+00  0.0000E+00  0.2121E+00  0.2121E+00
    -16.369  0.0000E+00  0.0000E+00  0.2121E+00  0.2121E+00
    -16.174  0.0000E+00  0.0000E+00  0.2121E+00  0.2121E+00
    -15.980  0.0000E+00  0.0000E+00  0.2121E+00  0.2121E+00
    -15.785  0.0000E+00  0.0000E+00  0.2121E+00  0.2121E+00
    -15.591  0.0000E+00  0.0000E+00  0.2121E+00  0.2121E+00
    -15.396  0.0000E+00  0.0000E+00  0.2121E+00  0.2121E+00
    -15.202  0.0000E+00  0.0000E+00  0.2121E+00  0.2121E+00
    -15.007  0.0000E+00  0.0000E+00  0.2121E+00  0.2121E+00
    -14.813  0.0000E+00  0.0000E+00  0.2121E+00  0.2121E+00
    -14.618  0.0000E+00  0.0000E+00  0.2121E+00  0.2121E+00
    -14.424  0.0000E+00  0.0000E+00  0.2121E+00  0.2121E+00
    -14.229  0.0000E+00  0.0000E+00  0.2121E+00  0.2121E+00
    -14.035  0.0000E+00  0.0000E+00  0.2121E+00  0.2121E+00
    -13.841  0.0000E+00  0.0000E+00  0.2121E+00  0.2121E+00
    -13.646  0.0000E+00  0.0000E+00  0.2121E+00  0.2121E+00
    -13.452  0.0000E+00  0.0000E+00  0.2121E+00  0.2121E+00
    -13.257  0.0000E+00  0.0000E+00  0.2121E+00  0.2121E+00
    -13.063  0.0000E+00  0.0000E+00  0.2121E+00  0.2121E+00
    -12.868  0.0000E+00  0.0000E+00  0.2121E+00  0.2121E+00
    -12.674  0.0000E+00  0.0000E+00  0.2121E+00  0.2121E+00
    -12.479  0.0000E+00  0.0000E+00  0.2121E+00  0.2121E+00
    -12.285  0.0000E+00  0.0000E+00  0.2121E+00  0.2121E+00
    -12.090  0.0000E+00  0.0000E+00  0.2121E+00  0.2121E+00
    -11.896  0.0000E+00  0.0000E+00  0.2121E+00  0.2121E+00
    -11.701  0.0000E+00  0.0000E+00  0.2121E+00  0.2121E+00
    -11.507  0.0000E+00  0.0000E+00  0.2121E+00  0.2121E+00
    -11.312  0.0000E+00  0.0000E+00  0.2121E+00  0.2121E+00
    -11.118  0.0000E+00  0.0000E+00  0.2121E+00  0.2121E+00
    -10.924  0.0000E+00  0.0000E+00  0.2121E+00  0.2121E+00
    -10.729  0.0000E+00  0.0000E+00  0.2121E+00  0.2121E+00
    -10.535  0.0000E+00  0.0000E+00  0.2121E+00  0.2121E+00
    -10.340  0.0000E+00  0.0000E+00  0.2121E+00  0.2121E+00
    -10.146  0.0000E+00  0.0000E+00  0.2121E+00  0.2121E+00
     -9.951  0.0000E+00  0.0000E+00  0.2121E+00  0.2121E+00
     -9.757  0.0000E+00  0.0000E+00  0.2121E+00  0.2121E+00
     -9.562  0.0000E+00  0.0000E+00  0.2121E+00  0.2121E+00
     -9.368  0.0000E+00  0.0000E+00  0.2121E+00  0.2121E+00
     -9.173  0.0000E+00  0.0000E+00  0.2121E+00  0.2121E+00
     -8.979  0.0000E+00  0.0000E+00  0.2121E+00  0.2121E+00
     -8.784  0.0000E+00  0.0000E+00  0.2121E+00  0.2121E+00
     -8.590  0.0000E+00  0.0000E+00  0.2121E+00  0.2121E+00
     -8.395  0.0000E+00  0.0000E+00  0.2121E+00  0.2121E+00
     -8.201  0.0000E+00  0.0000E+00  0.2121E+00  0.2121E+00
     -8.006  0.0000E+00  0.0000E+00  0.2121E+00  0.2121E+00
     -7.812  0.0000E+00  0.0000E+00  0.2121E+00  0.2121E+00
     -7.618  0.0000E+00  0.0000E+00  0.2121E+00  0.2121E+00
     -7.423  0.0000E+00  0.0000E+00  0.2121E+00  0.2121E+00
     -7.229  0.0000E+00  0.0000E+00  0.2121E+00  0.2121E+00
     -7.034  0.0000E+00  0.0000E+00  0.2121E+00  0.2121E+00
     -6.840  0.0000E+00  0.0000E+00  0.2121E+00  0.2121E+00
     -6.645  0.0000E+00  0.0000E+00  0.2121E+00  0.2121E+00
     -6.451  0.0000E+00  0.0000E+00  0.2121E+00  0.2121E+00
     -6.256  0.0000E+00  0.0000E+00  0.2121E+00  0.2121E+00
     -6.062  0.9887E-03  0.1488E-01  0.2121E+00  0.2128E+00
     -5.867  0.3683E-01  0.2955E-01  0.2142E+00  0.2179E+00
     -5.673  0.2556E-01  0.1039E-01  0.2191E+00  0.2222E+00
     -5.478  0.8440E-02  0.0000E+00  0.2222E+00  0.2222E+00
     -5.284  0.0000E+00  0.0000E+00  0.2222E+00  0.2222E+00
     -5.089  0.0000E+00  0.0000E+00  0.2222E+00  0.2222E+00
     -4.895  0.0000E+00  0.0000E+00  0.2222E+00  0.2222E+00
     -4.701  0.0000E+00  0.0000E+00  0.2222E+00  0.2222E+00
     -4.506  0.0000E+00  0.0000E+00  0.2222E+00  0.2222E+00
     -4.312  0.0000E+00  0.0000E+00  0.2222E+00  0.2222E+00
     -4.117  0.0000E+00  0.0000E+00  0.2222E+00  0.2222E+00
     -3.923  0.0000E+00  0.0000E+00  0.2222E+00  0.2222E+00
     -3.728  0.0000E+00  0.0000E+00  0.2222E+00  0.2222E+00
     -3.534  0.0000E+00  0.0000E+00  0.2222E+00  0.2222E+00
     -3.339  0.0000E+00  0.0000E+00  0.2222E+00  0.2222E+00
     -3.145  0.0000E+00  0.0000E+00  0.2222E+00  0.2222E+00
     -2.950  0.0000E+00  0.0000E+00  0.2222E+00  0.2222E+00
     -2.756  0.1508E-01  0.2490E-03  0.2228E+00  0.2222E+00
     -2.561  0.1586E-01  0.1867E-01  0.2265E+00  0.2235E+00
     -2.367  0.9115E-02  0.1560E-01  0.2287E+00  0.2273E+00
     -2.172  0.6463E-02  0.7222E-02  0.2301E+00  0.2292E+00
     -1.978  0.5278E-02  0.5993E-02  0.2312E+00  0.2305E+00
     -1.783  0.5214E-02  0.4876E-02  0.2325E+00  0.2315E+00
     -1.589  0.5918E-02  0.4389E-02  0.2333E+00  0.2326E+00
     -1.395  0.9912E-02  0.6810E-02  0.2348E+00  0.2335E+00
     -1.200  0.1300E-01  0.1078E-01  0.2372E+00  0.2351E+00
     -1.006  0.1139E-01  0.1282E-01  0.2396E+00  0.2375E+00
     -0.811  0.8964E-02  0.9801E-02  0.2413E+00  0.2396E+00
     -0.617  0.8250E-02  0.8609E-02  0.2428E+00  0.2412E+00
     -0.422  0.1474E-01  0.9335E-02  0.2450E+00  0.2429E+00
     -0.228  0.1917E-01  0.1396E-01  0.2481E+00  0.2450E+00
     -0.033  0.1300E-01  0.1658E-01  0.2514E+00  0.2479E+00
      0.161  0.1324E-01  0.1409E-01  0.2537E+00  0.2511E+00
      0.356  0.2112E-01  0.1159E-01  0.2571E+00  0.2534E+00
      0.550  0.1706E-01  0.1449E-01  0.2606E+00  0.2559E+00
      0.745  0.1530E-01  0.1658E-01  0.2637E+00  0.2592E+00
      0.939  0.1766E-01  0.1393E-01  0.2667E+00  0.2620E+00
      1.134  0.4154E-01  0.1133E-01  0.2721E+00  0.2645E+00
      1.328  0.4302E-01  0.1286E-01  0.2799E+00  0.2667E+00
      1.522  0.4605E-01  0.2726E-01  0.2868E+00  0.2705E+00
      1.717  0.9772E-01  0.1675E-01  0.2980E+00  0.2747E+00
      1.911  0.4231E-01  0.2134E-01  0.3079E+00  0.2785E+00
      2.106  0.5733E-01  0.2634E-01  0.3141E+00  0.2834E+00
      2.300  0.3714E-01  0.1621E-01  0.3207E+00  0.2872E+00
      2.495  0.3492E-01  0.1789E-01  0.3275E+00  0.2906E+00
      2.689  0.2515E-01  0.1176E-01  0.3325E+00  0.2933E+00
      2.884  0.2472E-01  0.1274E-01  0.3372E+00  0.2956E+00
      3.078  0.1832E-01  0.2213E-01  0.3414E+00  0.2993E+00
      3.273  0.1279E-01  0.1196E-01  0.3444E+00  0.3026E+00
      3.467  0.1209E-01  0.1887E-01  0.3469E+00  0.3050E+00
      3.662  0.1244E-01  0.2746E-01  0.3492E+00  0.3100E+00
      3.856  0.1179E-01  0.1636E-01  0.3517E+00  0.3142E+00
      4.051  0.1113E-01  0.1937E-01  0.3538E+00  0.3173E+00
      4.245  0.1673E-01  0.3475E-01  0.3562E+00  0.3223E+00
      4.440  0.2930E-01  0.3007E-01  0.3610E+00  0.3289E+00
      4.634  0.4694E-02  0.2195E-01  0.3640E+00  0.3333E+00
      4.828  0.2053E-01  0.5726E-01  0.3661E+00  0.3398E+00
      5.023  0.2459E-01  0.4437E-01  0.3705E+00  0.3472E+00
      5.217  0.2248E-01  0.2041E-01  0.3756E+00  0.3528E+00
      5.412  0.2053E-01  0.4397E-01  0.3796E+00  0.3578E+00
      5.606  0.1920E-01  0.2221E-01  0.3838E+00  0.3626E+00
      5.801  0.2669E-01  0.3717E-01  0.3879E+00  0.3682E+00
      5.995  0.1193E-01  0.2668E-01  0.3915E+00  0.3740E+00
      6.190  0.1266E-01  0.1863E-01  0.3937E+00  0.3789E+00
      6.384  0.1941E-01  0.3646E-01  0.3968E+00  0.3847E+00
      6.579  0.2286E-01  0.3060E-01  0.4010E+00  0.3905E+00
      6.773  0.2186E-01  0.2612E-01  0.4050E+00  0.3958E+00
      6.968  0.2420E-01  0.2431E-01  0.4092E+00  0.4008E+00
      7.162  0.2452E-01  0.2243E-01  0.4143E+00  0.4054E+00
      7.357  0.2303E-01  0.2477E-01  0.4182E+00  0.4103E+00
      7.551  0.1972E-01  0.2217E-01  0.4224E+00  0.4150E+00
      7.745  0.2103E-01  0.2221E-01  0.4261E+00  0.4192E+00
      7.940  0.2068E-01  0.1624E-01  0.4304E+00  0.4233E+00
      8.134  0.1342E-01  0.2727E-01  0.4337E+00  0.4266E+00
      8.329  0.1208E-01  0.1795E-01  0.4357E+00  0.4309E+00
      8.523  0.1794E-01  0.1246E-01  0.4393E+00  0.4337E+00
      8.718  0.8632E-02  0.1628E-01  0.4417E+00  0.4361E+00
      8.912  0.1910E-01  0.1263E-01  0.4440E+00  0.4401E+00
      9.107  0.2334E-01  0.1277E-01  0.4486E+00  0.4420E+00
      9.301  0.2580E-01  0.2466E-01  0.4529E+00  0.4460E+00
      9.496  0.4523E-01  0.1638E-01  0.4609E+00  0.4501E+00
      9.690  0.2717E-01  0.2571E-01  0.4664E+00  0.4539E+00
      9.885  0.2403E-01  0.2042E-01  0.4718E+00  0.4585E+00
     10.079  0.3306E-01  0.2249E-01  0.4762E+00  0.4625E+00
     10.274  0.1268E-01  0.1763E-01  0.4801E+00  0.4667E+00
     10.468  0.5509E-02  0.2228E-01  0.4818E+00  0.4701E+00
     10.663  0.3905E-02  0.2112E-01  0.4827E+00  0.4742E+00
     10.857  0.2948E-02  0.1469E-01  0.4833E+00  0.4778E+00
     11.051  0.2287E-02  0.9431E-02  0.4838E+00  0.4801E+00
     11.246  0.1701E-02  0.6889E-02  0.4842E+00  0.4816E+00
     11.440  0.1217E-02  0.5257E-02  0.4845E+00  0.4828E+00
     11.635  0.7681E-03  0.3796E-02  0.4847E+00  0.4837E+00
     11.829  0.3941E-03  0.2765E-02  0.4848E+00  0.4843E+00
     12.024  0.9482E-04  0.1231E-02  0.4848E+00  0.4847E+00
     12.218  0.0000E+00  0.1941E-03  0.4848E+00  0.4848E+00
     12.413  0.0000E+00  0.0000E+00  0.4848E+00  0.4848E+00
     12.607  0.0000E+00  0.0000E+00  0.4848E+00  0.4848E+00
     12.802  0.0000E+00  0.0000E+00  0.4848E+00  0.4848E+00
     12.996  0.0000E+00  0.0000E+00  0.4848E+00  0.4848E+00
     13.191  0.0000E+00  0.0000E+00  0.4848E+00  0.4848E+00
     13.385  0.0000E+00  0.0000E+00  0.4848E+00  0.4848E+00
     13.580  0.0000E+00  0.0000E+00  0.4848E+00  0.4848E+00
     13.774  0.0000E+00  0.0000E+00  0.4848E+00  0.4848E+00
     13.968  0.0000E+00  0.0000E+00  0.4848E+00  0.4848E+00
     14.163  0.0000E+00  0.0000E+00  0.4848E+00  0.4848E+00
     14.357  0.0000E+00  0.0000E+00  0.4848E+00  0.4848E+00
     14.552  0.0000E+00  0.0000E+00  0.4848E+00  0.4848E+00
     14.746  0.0000E+00  0.0000E+00  0.4848E+00  0.4848E+00
     14.941  0.0000E+00  0.0000E+00  0.4848E+00  0.4848E+00
     14.94083225    -43.39981860  301      3.25090770      1.00000000
    -43.400  0.0000E+00  0.0000E+00  0.0000E+00  0.0000E+00  0.0000E+00  0.0000E+00  0.0000E+00  0.0000E+00  0.0000E+00  0.0000E+00  0.0000E+00  0.0000E+00  0.0000E+00  0.0000E+00  0.0000E+00  0.0000E+00  0.0000E+00  0.0000E+00
    -43.205  0.0000E+00  0.0000E+00  0.0000E+00  0.0000E+00  0.0000E+00  0.0000E+00  0.0000E+00  0.0000E+00  0.0000E+00  0.0000E+00  0.0000E+00  0.0000E+00  0.0000E+00  0.0000E+00  0.0000E+00  0.0000E+00  0.0000E+00  0.0000E+00
    -43.011  0.0000E+00  0.0000E+00  0.0000E+00  0.0000E+00  0.0000E+00  0.0000E+00  0.0000E+00  0.0000E+00  0.0000E+00  0.0000E+00  0.0000E+00  0.0000E+00  0.0000E+00  0.0000E+00  0.0000E+00  0.0000E+00  0.0000E+00  0.0000E+00
    -42.816  0.0000E+00  0.0000E+00  0.0000E+00  0.0000E+00  0.0000E+00  0.0000E+00  0.0000E+00  0.0000E+00  0.0000E+00  0.0000E+00  0.0000E+00  0.0000E+00  0.0000E+00  0.0000E+00  0.0000E+00  0.0000E+00  0.0000E+00  0.0000E+00
    -42.622  0.0000E+00  0.0000E+00  0.0000E+00  0.0000E+00  0.0000E+00  0.0000E+00  0.0000E+00  0.0000E+00  0.0000E+00  0.0000E+00  0.0000E+00  0.0000E+00  0.0000E+00  0.0000E+00  0.0000E+00  0.0000E+00  0.0000E+00  0.0000E+00
    -42.427  0.0000E+00  0.0000E+00  0.0000E+00  0.0000E+00  0.0000E+00  0.0000E+00  0.0000E+00  0.0000E+00  0.0000E+00  0.0000E+00  0.0000E+00  0.0000E+00  0.0000E+00  0.0000E+00  0.0000E+00  0.0000E+00  0.0000E+00  0.0000E+00
    -42.233  0.0000E+00  0.0000E+00  0.0000E+00  0.0000E+00  0.0000E+00  0.0000E+00  0.0000E+00  0.0000E+00  0.0000E+00  0.0000E+00  0.0000E+00  0.0000E+00  0.0000E+00  0.0000E+00  0.0000E+00  0.0000E+00  0.0000E+00  0.0000E+00
    -42.039  0.0000E+00  0.0000E+00  0.0000E+00  0.0000E+00  0.0000E+00  0.0000E+00  0.0000E+00  0.0000E+00  0.0000E+00  0.0000E+00  0.0000E+00  0.0000E+00  0.0000E+00  0.0000E+00  0.0000E+00  0.0000E+00  0.0000E+00  0.0000E+00
    -41.844  0.0000E+00  0.0000E+00  0.0000E+00  0.0000E+00  0.0000E+00  0.0000E+00  0.0000E+00  0.0000E+00  0.0000E+00  0.0000E+00  0.0000E+00  0.0000E+00  0.0000E+00  0.0000E+00  0.0000E+00  0.0000E+00  0.0000E+00  0.0000E+00
    -41.650  0.0000E+00  0.0000E+00  0.0000E+00  0.0000E+00  0.0000E+00  0.0000E+00  0.0000E+00  0.0000E+00  0.0000E+00  0.0000E+00  0.0000E+00  0.0000E+00  0.0000E+00  0.0000E+00  0.0000E+00  0.0000E+00  0.0000E+00  0.0000E+00
    -41.455  0.0000E+00  0.0000E+00  0.0000E+00  0.0000E+00  0.0000E+00  0.0000E+00  0.0000E+00  0.0000E+00  0.0000E+00  0.0000E+00  0.0000E+00  0.0000E+00  0.0000E+00  0.0000E+00  0.0000E+00  0.0000E+00  0.0000E+00  0.0000E+00
    -41.261  0.0000E+00  0.0000E+00  0.0000E+00  0.0000E+00  0.0000E+00  0.0000E+00  0.0000E+00  0.0000E+00  0.0000E+00  0.0000E+00  0.0000E+00  0.0000E+00  0.0000E+00  0.0000E+00  0.0000E+00  0.0000E+00  0.0000E+00  0.0000E+00
    -41.066  0.0000E+00  0.0000E+00  0.0000E+00  0.0000E+00  0.0000E+00  0.0000E+00  0.0000E+00  0.0000E+00  0.0000E+00  0.0000E+00  0.0000E+00  0.0000E+00  0.0000E+00  0.0000E+00  0.0000E+00  0.0000E+00  0.0000E+00  0.0000E+00
    -40.872  0.0000E+00  0.0000E+00  0.0000E+00  0.0000E+00  0.0000E+00  0.0000E+00  0.0000E+00  0.0000E+00  0.0000E+00  0.0000E+00  0.0000E+00  0.0000E+00  0.0000E+00  0.0000E+00  0.0000E+00  0.0000E+00  0.0000E+00  0.0000E+00
    -40.677  0.4063E-05  0.0000E+00  0.4809E-03  0.0000E+00  0.6704E-05  0.0000E+00  0.1731E-03  0.0000E+00  0.1061E-05  0.0000E+00  0.3743E-07  0.0000E+00  0.4386E-06  0.0000E+00  0.1373E-07  0.0000E+00  0.3381E-06  0.0000E+00
    -40.483  0.0000E+00  0.0000E+00  0.0000E+00  0.0000E+00  0.0000E+00  0.0000E+00  0.0000E+00  0.0000E+00  0.0000E+00  0.0000E+00  0.0000E+00  0.0000E+00  0.0000E+00  0.0000E+00  0.0000E+00  0.0000E+00  0.0000E+00  0.0000E+00
    -40.288  0.0000E+00  0.0000E+00  0.0000E+00  0.0000E+00  0.0000E+00  0.0000E+00  0.0000E+00  0.0000E+00  0.0000E+00  0.0000E+00  0.0000E+00  0.0000E+00  0.0000E+00  0.0000E+00  0.0000E+00  0.0000E+00  0.0000E+00  0.0000E+00
    -40.094  0.0000E+00  0.0000E+00  0.0000E+00  0.0000E+00  0.0000E+00  0.0000E+00  0.0000E+00  0.0000E+00  0.0000E+00  0.0000E+00  0.0000E+00  0.0000E+00  0.0000E+00  0.0000E+00  0.0000E+00  0.0000E+00  0.0000E+00  0.0000E+00
    -39.899  0.0000E+00  0.0000E+00  0.0000E+00  0.0000E+00  0.0000E+00  0.0000E+00  0.0000E+00  0.0000E+00  0.0000E+00  0.0000E+00  0.0000E+00  0.0000E+00  0.0000E+00  0.0000E+00  0.0000E+00  0.0000E+00  0.0000E+00  0.0000E+00
    -39.705  0.0000E+00  0.0000E+00  0.0000E+00  0.0000E+00  0.0000E+00  0.0000E+00  0.0000E+00  0.0000E+00  0.0000E+00  0.0000E+00  0.0000E+00  0.0000E+00  0.0000E+00  0.0000E+00  0.0000E+00  0.0000E+00  0.0000E+00  0.0000E+00
    -39.510  0.0000E+00  0.0000E+00  0.0000E+00  0.0000E+00  0.0000E+00  0.0000E+00  0.0000E+00  0.0000E+00  0.0000E+00  0.0000E+00  0.0000E+00  0.0000E+00  0.0000E+00  0.0000E+00  0.0000E+00  0.0000E+00  0.0000E+00  0.0000E+00
    -39.316  0.3155E-05  0.3157E-05  0.2947E-02  0.3169E-02  0.1793E-01  0.2029E-01  0.6780E-02  0.7890E-02  0.1059E-06  0.1013E-06  0.2315E-06  0.2236E-06  0.3081E-06  0.3087E-06  0.6793E-06  0.6725E-06  0.5639E-07  0.5679E-07
    -39.122  0.3766E-05  0.3889E-05  0.5107E+01  0.5107E+01  0.5088E+01  0.5086E+01  0.5102E+01  0.5100E+01  0.2894E-06  0.3806E-06  0.1135E-05  0.1211E-05  0.5492E-06  0.5731E-06  0.7171E-07  0.9384E-07  0.1301E-05  0.1373E-05
    -38.927  0.0000E+00  0.0000E+00  0.0000E+00  0.0000E+00  0.0000E+00  0.0000E+00  0.0000E+00  0.0000E+00  0.0000E+00  0.0000E+00  0.0000E+00  0.0000E+00  0.0000E+00  0.0000E+00  0.0000E+00  0.0000E+00  0.0000E+00  0.0000E+00
    -38.733  0.3618E-05  0.3733E-05  0.9558E-03  0.1001E-02  0.4724E-02  0.4649E-02  0.2554E-02  0.2522E-02  0.1425E-06  0.1539E-06  0.3225E-06  0.3295E-06  0.3619E-06  0.3595E-06  0.8807E-06  0.8947E-06  0.5410E-07  0.5401E-07
    -38.538  0.0000E+00  0.0000E+00  0.0000E+00  0.0000E+00  0.0000E+00  0.0000E+00  0.0000E+00  0.0000E+00  0.0000E+00  0.0000E+00  0.0000E+00  0.0000E+00  0.0000E+00  0.0000E+00  0.0000E+00  0.0000E+00  0.0000E+00  0.0000E+00
    -38.344  0.0000E+00  0.0000E+00  0.0000E+00  0.0000E+00  0.0000E+00  0.0000E+00  0.0000E+00  0.0000E+00  0.0000E+00  0.0000E+00  0.0000E+00  0.0000E+00  0.0000E+00  0.0000E+00  0.0000E+00  0.0000E+00  0.0000E+00  0.0000E+00
    -38.149  0.0000E+00  0.0000E+00  0.0000E+00  0.0000E+00  0.0000E+00  0.0000E+00  0.0000E+00  0.0000E+00  0.0000E+00  0.0000E+00  0.0000E+00  0.0000E+00  0.0000E+00  0.0000E+00  0.0000E+00  0.0000E+00  0.0000E+00  0.0000E+00
    -37.955  0.0000E+00  0.0000E+00  0.0000E+00  0.0000E+00  0.0000E+00  0.0000E+00  0.0000E+00  0.0000E+00  0.0000E+00  0.0000E+00  0.0000E+00  0.0000E+00  0.0000E+00  0.0000E+00  0.0000E+00  0.0000E+00  0.0000E+00  0.0000E+00
    -37.760  0.0000E+00  0.0000E+00  0.0000E+00  0.0000E+00  0.0000E+00  0.0000E+00  0.0000E+00  0.0000E+00  0.0000E+00  0.0000E+00  0.0000E+00  0.0000E+00  0.0000E+00  0.0000E+00  0.0000E+00  0.0000E+00  0.0000E+00  0.0000E+00
    -37.566  0.0000E+00  0.0000E+00  0.0000E+00  0.0000E+00  0.0000E+00  0.0000E+00  0.0000E+00  0.0000E+00  0.0000E+00  0.0000E+00  0.0000E+00  0.0000E+00  0.0000E+00  0.0000E+00  0.0000E+00  0.0000E+00  0.0000E+00  0.0000E+00
    -37.371  0.0000E+00  0.0000E+00  0.0000E+00  0.0000E+00  0.0000E+00  0.0000E+00  0.0000E+00  0.0000E+00  0.0000E+00  0.0000E+00  0.0000E+00  0.0000E+00  0.0000E+00  0.0000E+00  0.0000E+00  0.0000E+00  0.0000E+00  0.0000E+00
    -37.177  0.0000E+00  0.0000E+00  0.0000E+00  0.0000E+00  0.0000E+00  0.0000E+00  0.0000E+00  0.0000E+00  0.0000E+00  0.0000E+00  0.0000E+00  0.0000E+00  0.0000E+00  0.0000E+00  0.0000E+00  0.0000E+00  0.0000E+00  0.0000E+00
    -36.982  0.0000E+00  0.5982E-05  0.0000E+00  0.3350E-03  0.0000E+00  0.4186E-05  0.0000E+00  0.1281E-03  0.0000E+00  0.1575E-05  0.0000E+00  0.5278E-07  0.0000E+00  0.6575E-06  0.0000E+00  0.1932E-07  0.0000E+00  0.4880E-06
    -36.788  0.0000E+00  0.0000E+00  0.0000E+00  0.0000E+00  0.0000E+00  0.0000E+00  0.0000E+00  0.0000E+00  0.0000E+00  0.0000E+00  0.0000E+00  0.0000E+00  0.0000E+00  0.0000E+00  0.0000E+00  0.0000E+00  0.0000E+00  0.0000E+00
    -36.593  0.0000E+00  0.0000E+00  0.0000E+00  0.0000E+00  0.0000E+00  0.0000E+00  0.0000E+00  0.0000E+00  0.0000E+00  0.0000E+00  0.0000E+00  0.0000E+00  0.0000E+00  0.0000E+00  0.0000E+00  0.0000E+00  0.0000E+00  0.0000E+00
    -36.399  0.0000E+00  0.0000E+00  0.0000E+00  0.0000E+00  0.0000E+00  0.0000E+00  0.0000E+00  0.0000E+00  0.0000E+00  0.0000E+00  0.0000E+00  0.0000E+00  0.0000E+00  0.0000E+00  0.0000E+00  0.0000E+00  0.0000E+00  0.0000E+00
    -36.204  0.0000E+00  0.0000E+00  0.0000E+00  0.0000E+00  0.0000E+00  0.0000E+00  0.0000E+00  0.0000E+00  0.0000E+00  0.0000E+00  0.0000E+00  0.0000E+00  0.0000E+00  0.0000E+00  0.0000E+00  0.0000E+00  0.0000E+00  0.0000E+00
    -36.010  0.0000E+00  0.0000E+00  0.0000E+00  0.0000E+00  0.0000E+00  0.0000E+00  0.0000E+00  0.0000E+00  0.0000E+00  0.0000E+00  0.0000E+00  0.0000E+00  0.0000E+00  0.0000E+00  0.0000E+00  0.0000E+00  0.0000E+00  0.0000E+00
    -35.816  0.0000E+00  0.0000E+00  0.0000E+00  0.0000E+00  0.0000E+00  0.0000E+00  0.0000E+00  0.0000E+00  0.0000E+00  0.0000E+00  0.0000E+00  0.0000E+00  0.0000E+00  0.0000E+00  0.0000E+00  0.0000E+00  0.0000E+00  0.0000E+00
    -35.621  0.0000E+00  0.0000E+00  0.0000E+00  0.0000E+00  0.0000E+00  0.0000E+00  0.0000E+00  0.0000E+00  0.0000E+00  0.0000E+00  0.0000E+00  0.0000E+00  0.0000E+00  0.0000E+00  0.0000E+00  0.0000E+00  0.0000E+00  0.0000E+00
    -35.427  0.0000E+00  0.0000E+00  0.0000E+00  0.0000E+00  0.0000E+00  0.0000E+00  0.0000E+00  0.0000E+00  0.0000E+00  0.0000E+00  0.0000E+00  0.0000E+00  0.0000E+00  0.0000E+00  0.0000E+00  0.0000E+00  0.0000E+00  0.0000E+00
    -35.232  0.0000E+00  0.0000E+00  0.0000E+00  0.0000E+00  0.0000E+00  0.0000E+00  0.0000E+00  0.0000E+00  0.0000E+00  0.0000E+00  0.0000E+00  0.0000E+00  0.0000E+00  0.0000E+00  0.0000E+00  0.0000E+00  0.0000E+00  0.0000E+00
    -35.038  0.0000E+00  0.0000E+00  0.0000E+00  0.0000E+00  0.0000E+00  0.0000E+00  0.0000E+00  0.0000E+00  0.0000E+00  0.0000E+00  0.0000E+00  0.0000E+00  0.0000E+00  0.0000E+00  0.0000E+00  0.0000E+00  0.0000E+00  0.0000E+00
    -34.843  0.0000E+00  0.0000E+00  0.0000E+00  0.0000E+00  0.0000E+00  0.0000E+00  0.0000E+00  0.0000E+00  0.0000E+00  0.0000E+00  0.0000E+00  0.0000E+00  0.0000E+00  0.0000E+00  0.0000E+00  0.0000E+00  0.0000E+00  0.0000E+00
    -34.649  0.0000E+00  0.0000E+00  0.0000E+00  0.0000E+00  0.0000E+00  0.0000E+00  0.0000E+00  0.0000E+00  0.0000E+00  0.0000E+00  0.0000E+00  0.0000E+00  0.0000E+00  0.0000E+00  0.0000E+00  0.0000E+00  0.0000E+00  0.0000E+00
    -34.454  0.0000E+00  0.0000E+00  0.0000E+00  0.0000E+00  0.0000E+00  0.0000E+00  0.0000E+00  0.0000E+00  0.0000E+00  0.0000E+00  0.0000E+00  0.0000E+00  0.0000E+00  0.0000E+00  0.0000E+00  0.0000E+00  0.0000E+00  0.0000E+00
    -34.260  0.0000E+00  0.0000E+00  0.0000E+00  0.0000E+00  0.0000E+00  0.0000E+00  0.0000E+00  0.0000E+00  0.0000E+00  0.0000E+00  0.0000E+00  0.0000E+00  0.0000E+00  0.0000E+00  0.0000E+00  0.0000E+00  0.0000E+00  0.0000E+00
    -34.065  0.0000E+00  0.0000E+00  0.0000E+00  0.0000E+00  0.0000E+00  0.0000E+00  0.0000E+00  0.0000E+00  0.0000E+00  0.0000E+00  0.0000E+00  0.0000E+00  0.0000E+00  0.0000E+00  0.0000E+00  0.0000E+00  0.0000E+00  0.0000E+00
    -33.871  0.0000E+00  0.0000E+00  0.0000E+00  0.0000E+00  0.0000E+00  0.0000E+00  0.0000E+00  0.0000E+00  0.0000E+00  0.0000E+00  0.0000E+00  0.0000E+00  0.0000E+00  0.0000E+00  0.0000E+00  0.0000E+00  0.0000E+00  0.0000E+00
    -33.676  0.0000E+00  0.0000E+00  0.0000E+00  0.0000E+00  0.0000E+00  0.0000E+00  0.0000E+00  0.0000E+00  0.0000E+00  0.0000E+00  0.0000E+00  0.0000E+00  0.0000E+00  0.0000E+00  0.0000E+00  0.0000E+00  0.0000E+00  0.0000E+00