    8    8   99    2
  0.1871078E+02  0.6078034E-09  0.6078034E-09  0.4630521E-09  0.5000000E-15
   1.0000000000000000E-004
  CAR 
 unknown system                          
     64     21     48
 
  0.1262379E-14  0.1262379E-14  0.1262379E-14  0.1250000E-01
      1        -40.747853      -39.453360   1.000000   1.000000
      2        -40.727114      -39.445309   1.000000   1.000000
      3        -40.719930      -39.433490   1.000000   1.000000
      4        -39.457225      -39.294575   1.000000   1.000000
      5        -39.451236      -39.288709   1.000000   1.000000
      6        -39.439273      -39.285024   1.000000   1.000000
      7        -39.295100      -39.275843   1.000000   1.000000
      8        -39.288765      -39.273046   1.000000   1.000000
      9        -39.287423      -39.262884   1.000000   1.000000
     10        -39.281432      -39.248619   1.000000   1.000000
     11        -39.279584      -39.247741   1.000000   1.000000
     12        -39.265631      -39.246150   1.000000   1.000000
     13        -39.243492      -39.232794   1.000000   1.000000
     14        -39.241944      -39.213498   1.000000   1.000000
     15        -39.241503      -39.201798   1.000000   1.000000
     16        -39.228540      -38.834160   1.000000   1.000000
     17        -39.207345      -38.831789   1.000000   1.000000
     18        -39.193857      -38.829453   1.000000   1.000000
     19        -38.834272      -37.141293   1.000000   1.000000
     20        -38.831680      -37.130311   1.000000   1.000000
     21        -38.827136      -37.036788   1.000000   1.000000
     22         -6.107253       -6.198391   1.000000   1.000000
     23         -2.673383       -2.551978   1.000000   1.000000
     24          0.353017        0.425404   1.000000   1.000000
     25          0.415713        0.483037   1.000000   1.000000
     26          0.515202        1.034737   1.000000   1.000000
     27          0.656364        1.241589   1.000000   1.000000
     28          1.141474        1.320107   1.000000   1.000000
     29          1.251568        1.332692   1.000000   1.000000
     30          1.698899        2.694103   1.000000   1.010698
     31          1.730205        4.199388   1.000000   0.000000
     32          1.948539        4.422607   1.000000   0.000000
     33          2.351254        4.632455   1.000000   0.000000
     34          2.651725        4.723128   1.103460   0.000000
     35          3.458349        5.124898   0.012346   0.000000
     36          4.099194        5.350837   0.000000   0.000000
     37          5.537685        5.500101   0.000000   0.000000
     38          5.544841        5.614107   0.000000   0.000000
     39          6.044996        6.701484   0.000000   0.000000
     40          6.812174        6.835842   0.000000   0.000000
     41          7.189485        7.411211   0.000000   0.000000
     42          7.447341        7.964576   0.000000   0.000000
     43          8.298403        8.361063   0.000000   0.000000
     44          8.508665        9.286268   0.000000   0.000000
     45          8.737787        9.530730   0.000000   0.000000
     46          9.193449        9.615741   0.000000   0.000000
     47          9.430597        9.800785   0.000000   0.000000
     48          9.431610        9.810047   0.000000   0.000000
 
  0.2500000E+00  0.1286332E-14  0.1262379E-14  0.5000000E-01
      1        -40.747844      -39.452787   1.000000   1.000000
      2        -40.727059      -39.444907   1.000000   1.000000
      3        -40.719794      -39.433408   1.000000   1.000000
      4        -39.456672      -39.293339   1.000000   1.000000
      5        -39.450837      -39.289270   1.000000   1.000000
      6        -39.439193      -39.282949   1.000000   1.000000
      7        -39.293488      -39.275496   1.000000   1.000000
      8        -39.289289      -39.273382   1.000000   1.000000
      9        -39.285713      -39.265929   1.000000   1.000000
     10        -39.281409      -39.247744   1.000000   1.000000
     11        -39.279598      -39.245966   1.000000   1.000000
     12        -39.268707      -39.245831   1.000000   1.000000
     13        -39.243559      -39.234568   1.000000   1.000000
     14        -39.241700      -39.212143   1.000000   1.000000
     15        -39.239135      -39.203888   1.000000   1.000000
     16        -39.229959      -38.834306   1.000000   1.000000
     17        -39.205913      -38.831730   1.000000   1.000000
     18        -39.196324      -38.829619   1.000000   1.000000
     19        -38.834414      -37.141435   1.000000   1.000000
     20        -38.831617      -37.130291   1.000000   1.000000
     21        -38.827303      -37.036807   1.000000   1.000000
     22         -5.995011       -6.108277   1.000000   1.000000
     23         -2.786121       -2.612195   1.000000   1.000000
     24         -0.806846       -0.713786   1.000000   1.000000
     25         -0.300493       -0.020865   1.000000   1.000000
     26          0.845793        1.129230   1.000000   1.000000
     27          1.157015        1.425274   1.000000   1.000000
     28          1.292033        2.101166   1.000000   1.000000
     29          1.665320        2.658882   1.000000   1.000000
     30          1.719289        3.007587   1.000000   1.019949
     31          2.057617        3.860602   1.000000   0.000000
     32          2.064073        4.262834   1.000000   0.000000
     33          2.727053        4.278961   1.000000   0.000000
     34          3.455328        4.915731   0.312935   0.000000
     35          3.883198        5.124755  -0.012547   0.000000
     36          3.952494        5.346140   0.000000   0.000000
     37          4.987563        5.587386   0.000000   0.000000
     38          5.518419        6.175412   0.000000   0.000000
     39          5.793528        6.186310   0.000000   0.000000
     40          6.498999        6.980431   0.000000   0.000000
     41          6.581807        7.142773   0.000000   0.000000
     42          7.173493        7.548865   0.000000   0.000000
     43          8.352411        8.643223   0.000000   0.000000
     44          8.547937        8.818922   0.000000   0.000000
     45          8.915858        9.019468   0.000000   0.000000
     46          9.043018        9.667566   0.000000   0.000000
     47          9.421004        9.904430   0.000000   0.000000
     48         10.161689       10.735587   0.000000   0.000000
 
  0.5000000E+00  0.1315089E-14  0.1262379E-14  0.2500000E-01
      1        -40.747845      -39.452239   1.000000   1.000000
      2        -40.727018      -39.444534   1.000000   1.000000
      3        -40.719657      -39.433381   1.000000   1.000000
      4        -39.456152      -39.292204   1.000000   1.000000
      5        -39.450461      -39.289960   1.000000   1.000000
      6        -39.439169      -39.278992   1.000000   1.000000
      7        -39.292145      -39.275014   1.000000   1.000000
      8        -39.289901      -39.273934   1.000000   1.000000
      9        -39.281982      -39.270760   1.000000   1.000000
     10        -39.281445      -39.247816   1.000000   1.000000
     11        -39.279645      -39.245883   1.000000   1.000000
     12        -39.273583      -39.240119   1.000000   1.000000
     13        -39.243675      -39.239321   1.000000   1.000000
     14        -39.241562      -39.208619   1.000000   1.000000
     15        -39.234490      -39.208222   1.000000   1.000000
     16        -39.233691      -38.834518   1.000000   1.000000
     17        -39.201980      -38.831739   1.000000   1.000000
     18        -39.201388      -38.829784   1.000000   1.000000
     19        -38.834621      -37.141585   1.000000   1.000000
     20        -38.831624      -37.130299   1.000000   1.000000
     21        -38.827471      -37.036863   1.000000   1.000000
     22         -5.867796       -6.009604   1.000000   1.000000
     23         -2.920910       -2.664782   1.000000   1.000000
     24         -1.366840       -1.330989   1.000000   1.000000
     25         -0.608721       -0.322054   1.000000   1.000000
     26          1.104576        1.549811   1.000000   1.000000
     27          1.154933        1.777043   1.000000   1.000000
     28          1.478705        2.127600   1.000000   1.000000
     29          1.636588        2.872730   1.000000   1.000000
     30          1.674180        3.642216   1.000000  -0.142709
     31          2.162123        3.679635   1.000000   0.000000
     32          2.476200        3.990866   1.000000   0.000000
     33          3.151521        4.822335   1.000000   0.000000
     34          3.471289        5.058236   0.060776   0.000000
     35          4.475191        5.107607   0.000000   0.000000
     36          4.707444        5.109645   0.000000   0.000000
     37          4.986826        5.922120   0.000000   0.000000
     38          5.406897        6.255412   0.000000   0.000000
     39          5.409118        6.397449   0.000000   0.000000
     40          5.962863        6.521203   0.000000   0.000000
     41          6.118220        6.761820   0.000000   0.000000
     42          7.033876        7.365615   0.000000   0.000000
     43          7.451197        7.959774   0.000000   0.000000
     44          8.105535        8.451408   0.000000   0.000000
     45          9.208756        9.345063   0.000000   0.000000
     46          9.430734       10.248195   0.000000   0.000000
     47          9.655374       10.293948   0.000000   0.000000
     48          9.948513       10.935200   0.000000   0.000000
 
  0.2500000E+00  0.2500000E+00  0.1262379E-14  0.2500000E-01
      1        -40.747846      -39.452197   1.000000   1.000000
      2        -40.727014      -39.444571   1.000000   1.000000
      3        -40.719661      -39.433377   1.000000   1.000000
      4        -39.456096      -39.291975   1.000000   1.000000
      5        -39.450512      -39.290189   1.000000   1.000000
      6        -39.439165      -39.278978   1.000000   1.000000
      7        -39.291937      -39.274999   1.000000   1.000000
      8        -39.290107      -39.273958   1.000000   1.000000
      9        -39.281970      -39.270746   1.000000   1.000000
     10        -39.281439      -39.247790   1.000000   1.000000
     11        -39.279651      -39.245864   1.000000   1.000000
     12        -39.273571      -39.240121   1.000000   1.000000
     13        -39.243658      -39.239312   1.000000   1.000000
     14        -39.241542      -39.208553   1.000000   1.000000
     15        -39.234495      -39.208284   1.000000   1.000000
     16        -39.233683      -38.834492   1.000000   1.000000
     17        -39.201931      -38.831728   1.000000   1.000000
     18        -39.201428      -38.829806   1.000000   1.000000
     19        -38.834598      -37.141584   1.000000   1.000000
     20        -38.831612      -37.130297   1.000000   1.000000
     21        -38.827489      -37.036860   1.000000   1.000000
     22         -5.870789       -6.011571   1.000000   1.000000
     23         -2.759921       -2.473986   1.000000   1.000000
     24         -1.910727       -1.845466   1.000000   1.000000
     25          0.099811        0.320832   1.000000   1.000000
     26          1.117635        1.549152   1.000000   1.000000
     27          1.135412        1.562910   1.000000   1.000000
     28          1.190731        2.135650   1.000000   1.000000
     29          1.565074        2.479506   1.000000   1.000000
     30          1.608404        3.635722   1.000000  -0.112972
     31          2.300069        3.985623   1.000000   0.000000
     32          2.453474        4.099588   1.000000   0.000000
     33          3.247408        4.540495   1.000000   0.000000
     34          3.683693        4.901269  -0.144096   0.000000
     35          4.191003        5.116333   0.000000   0.000000
     36          4.449928        5.590194   0.000000   0.000000
     37          4.787680        5.694620   0.000000   0.000000
     38          5.047358        5.797028   0.000000   0.000000
     39          5.195344        6.415781   0.000000   0.000000
     40          6.429759        6.612844   0.000000   0.000000
     41          6.885460        7.215895   0.000000   0.000000
     42          7.028108        7.301819   0.000000   0.000000
     43          7.699143        8.322544   0.000000   0.000000
     44          8.724632        8.844545   0.000000   0.000000
     45          9.051983        9.519853   0.000000   0.000000
     46          9.222657        9.545818   0.000000   0.000000
     47          9.429106       10.342366   0.000000   0.000000
     48          9.900630       10.910331   0.000000   0.000000
 
  0.5000000E+00  0.2500000E+00  0.1262379E-14  0.5000000E-01
      1        -40.747842      -39.451688   1.000000   1.000000
      2        -40.726968      -39.444524   1.000000   1.000000
      3        -40.719526      -39.433374   1.000000   1.000000
      4        -39.455605      -39.294483   1.000000   1.000000
      5        -39.450468      -39.289426   1.000000   1.000000
      6        -39.439161      -39.282528   1.000000   1.000000
      7        -39.294609      -39.275532   1.000000   1.000000
      8        -39.289425      -39.273471   1.000000   1.000000
      9        -39.285306      -39.265914   1.000000   1.000000
     10        -39.281510      -39.247740   1.000000   1.000000
     11        -39.279651      -39.245943   1.000000   1.000000
     12        -39.268693      -39.245871   1.000000   1.000000
     13        -39.243514      -39.234528   1.000000   1.000000
     14        -39.241626      -39.211936   1.000000   1.000000
     15        -39.239252      -39.203799   1.000000   1.000000
     16        -39.229956      -38.834462   1.000000   1.000000
     17        -39.206302      -38.831732   1.000000   1.000000
     18        -39.196330      -38.829995   1.000000   1.000000
     19        -38.834567      -37.141736   1.000000   1.000000
     20        -38.831613      -37.130297   1.000000   1.000000
     21        -38.827680      -37.036917   1.000000   1.000000
     22         -5.873819       -6.005260   1.000000   1.000000
     23         -2.744344       -2.626496   1.000000   1.000000
     24         -1.896835       -1.628420   1.000000   1.000000
     25         -0.017104        0.218930   1.000000   1.000000
     26          1.058221        1.352235   1.000000   1.000000
     27          1.250509        1.614467   1.000000   1.000000
     28          1.445143        2.497413   1.000000   1.000000
     29          1.566588        3.099251   1.000000   1.000000
     30          1.761102        3.274615   1.000000   0.528707
     31          2.185576        3.299848   1.000000   0.000000
     32          2.442244        4.292445   1.000000   0.000000
     33          3.051181        4.355366   1.000000   0.000000
     34          3.250117        4.629485   0.622862   0.000000
     35          3.923198        5.102158   0.000000   0.000000
     36          4.469431        5.497767   0.000000   0.000000
     37          4.795358        5.752134   0.000000   0.000000
     38          5.117278        5.978276   0.000000   0.000000
     39          5.815755        6.413744   0.000000   0.000000
     40          6.839700        7.257173   0.000000   0.000000
     41          6.874207        7.281605   0.000000   0.000000
     42          6.985070        7.537819   0.000000   0.000000
     43          7.527696        8.107421   0.000000   0.000000
     44          8.820813        9.001010   0.000000   0.000000
     45          8.852758        9.072221   0.000000   0.000000
     46          9.288553        9.692518   0.000000   0.000000
     47          9.666023        9.931771   0.000000   0.000000
     48         10.074368       10.353409   0.000000   0.000000
 
 -0.2500000E+00  0.2500000E+00  0.1262379E-14  0.2500000E-01
      1        -40.747844      -39.452243   1.000000   1.000000
      2        -40.727013      -39.444877   1.000000   1.000000
      3        -40.719660      -39.433408   1.000000   1.000000
      4        -39.456138      -39.295538   1.000000   1.000000
      5        -39.450819      -39.288912   1.000000   1.000000
      6        -39.439193      -39.284638   1.000000   1.000000
      7        -39.295973      -39.275859   1.000000   1.000000
      8        -39.288945      -39.273074   1.000000   1.000000
      9        -39.287118      -39.262815   1.000000   1.000000
     10        -39.281501      -39.248663   1.000000   1.000000
     11        -39.279584      -39.247698   1.000000   1.000000
     12        -39.265561      -39.245976   1.000000   1.000000
     13        -39.243407      -39.232723   1.000000   1.000000
     14        -39.241799      -39.213280   1.000000   1.000000
     15        -39.241556      -39.201656   1.000000   1.000000
     16        -39.228517      -38.834264   1.000000   1.000000
     17        -39.207652      -38.831737   1.000000   1.000000
     18        -39.193870      -38.829802   1.000000   1.000000
     19        -38.834372      -37.141587   1.000000   1.000000
     20        -38.831622      -37.130298   1.000000   1.000000
     21        -38.827486      -37.036868   1.000000   1.000000
     22         -5.997581       -6.102817   1.000000   1.000000
     23         -2.770674       -2.681595   1.000000   1.000000
     24         -0.843205       -0.442683   1.000000   1.000000
     25         -0.244310       -0.143142   1.000000   1.000000
     26          0.892723        0.975120   1.000000   1.000000
     27          1.325805        1.475413   1.000000   1.000000
     28          1.328382        2.102442   1.000000   1.000000
     29          1.529752        2.717249   1.000000   1.000000
     30          1.712521        3.351811   1.000000   0.462371
     31          1.731568        3.524024   1.000000   0.000000
     32          2.307711        4.081856   1.000000   0.000000
     33          2.943997        4.495550   1.000000   0.000000
     34          2.991137        4.602259   1.063713   0.000000
     35          3.669004        4.888196  -0.004622   0.000000
     36          4.017011        5.342085   0.000000   0.000000
     37          5.172694        5.879048   0.000000   0.000000
     38          5.571407        5.962141   0.000000   0.000000
     39          5.838385        6.778447   0.000000   0.000000
     40          6.551419        6.897758   0.000000   0.000000
     41          6.667507        7.053402   0.000000   0.000000
     42          7.512328        8.026892   0.000000   0.000000
     43          7.984243        8.071962   0.000000   0.000000
     44          8.330542        8.656728   0.000000   0.000000
     45          8.866650        9.203089   0.000000   0.000000
     46          9.128197        9.506997   0.000000   0.000000
     47          9.446745        9.958768   0.000000   0.000000
     48         10.422561       10.656263   0.000000   0.000000
 
  0.5000000E+00  0.5000000E+00  0.1262379E-14  0.1250000E-01
      1        -40.747841      -39.451160   1.000000   1.000000
      2        -40.726921      -39.444505   1.000000   1.000000
      3        -40.719394      -39.433380   1.000000   1.000000
      4        -39.455086      -39.296580   1.000000   1.000000
      5        -39.450461      -39.289193   1.000000   1.000000
      6        -39.439166      -39.284292   1.000000   1.000000
      7        -39.296946      -39.275886   1.000000   1.000000
      8        -39.289204      -39.273165   1.000000   1.000000
      9        -39.286832      -39.262793   1.000000   1.000000
     10        -39.281591      -39.248777   1.000000   1.000000
     11        -39.279649      -39.247731   1.000000   1.000000
     12        -39.265540      -39.245878   1.000000   1.000000
     13        -39.243387      -39.232719   1.000000   1.000000
     14        -39.241726      -39.213114   1.000000   1.000000
     15        -39.241672      -39.201575   1.000000   1.000000
     16        -39.228566      -38.834430   1.000000   1.000000
     17        -39.208013      -38.831746   1.000000   1.000000
     18        -39.193937      -38.830210   1.000000   1.000000
     19        -38.834534      -37.141886   1.000000   1.000000
     20        -38.831625      -37.130306   1.000000   1.000000
     21        -38.827894      -37.036975   1.000000   1.000000
     22         -5.875362       -5.997944   1.000000   1.000000
     23         -2.837769       -2.796464   1.000000   1.000000
     24         -1.545404       -1.083073   1.000000   1.000000
     25         -0.510680       -0.430539   1.000000   1.000000
     26          1.131887        1.566780   1.000000   1.000000
     27          1.446243        1.696797   1.000000   1.000000
     28          1.600196        2.603951   1.000000   1.000000
     29          1.695070        3.024858   1.000000   1.000000
     30          1.704368        3.241786   1.000000   0.790198
     31          2.074660        3.712470   1.000000   0.000000
     32          2.366769        3.884470   1.000000   0.000000
     33          2.705504        4.379990   1.000000   0.000000
     34          3.410126        4.777153   0.184105   0.000000
     35          4.152302        5.063866   0.000000   0.000000
     36          4.494660        5.463246   0.000000   0.000000
     37          4.903695        5.533910   0.000000   0.000000
     38          4.905789        5.810125   0.000000   0.000000
     39          5.761885        6.352907   0.000000   0.000000
     40          6.562740        7.232480   0.000000   0.000000
     41          7.076990        7.321853   0.000000   0.000000
     42          7.192185        7.628481   0.000000   0.000000
     43          7.209137        8.272572   0.000000   0.000000
     44          8.563588        8.672010   0.000000   0.000000
     45          8.645045        8.958866   0.000000   0.000000
     46          8.930544        9.255688   0.000000   0.000000
     47          9.429488       10.415561   0.000000   0.000000
     48         10.108791       10.878378   0.000000   0.000000
 
  0.1262379E-14  0.1262379E-14  0.2000000E+00  0.2500000E-01
      1        -40.747895      -39.453443   1.000000   1.000000
      2        -40.727180      -39.445546   1.000000   1.000000
      3        -40.720007      -39.433352   1.000000   1.000000
      4        -39.457302      -39.294758   1.000000   1.000000
      5        -39.451456      -39.289237   1.000000   1.000000
      6        -39.439142      -39.285510   1.000000   1.000000
      7        -39.295138      -39.274903   1.000000   1.000000
      8        -39.289210      -39.272025   1.000000   1.000000
      9        -39.287740      -39.262887   1.000000   1.000000
     10        -39.281061      -39.248817   1.000000   1.000000
     11        -39.278814      -39.247957   1.000000   1.000000
     12        -39.265686      -39.246972   1.000000   1.000000
     13        -39.244118      -39.232344   1.000000   1.000000
     14        -39.242188      -39.213366   1.000000   1.000000
     15        -39.240895      -39.201509   1.000000   1.000000
     16        -39.228221      -38.834020   1.000000   1.000000
     17        -39.207350      -38.831773   1.000000   1.000000
     18        -39.193670      -38.829458   1.000000   1.000000
     19        -38.834136      -37.141177   1.000000   1.000000
     20        -38.831744      -37.130534   1.000000   1.000000
     21        -38.827022      -37.036698   1.000000   1.000000
     22         -5.973504       -6.076156   1.000000   1.000000
     23         -2.607682       -2.501106   1.000000   1.000000
     24         -0.038835        0.150577   1.000000   1.000000
     25          0.534670        0.625529   1.000000   1.000000
     26          0.628177        0.686452   1.000000   1.000000
     27          0.818401        1.273047   1.000000   1.000000
     28          0.850338        1.526306   1.000000   1.000000
     29          1.132361        1.643041   1.000000   1.000000
     30          1.669099        2.727322   1.000000   1.019201
     31          1.876217        3.742531   1.000000  -0.032510
     32          2.292236        3.992991   1.000000  -0.003027
     33          2.369483        4.210674   1.000000   0.000000
     34          2.573217        4.626278   1.033926   0.000000
     35          3.075324        4.741682   0.522058   0.000000
     36          4.581298        5.323484   0.000000   0.000000
     37          4.692661        5.558749   0.000000   0.000000
     38          5.122169        5.953295   0.000000   0.000000
     39          5.718181        6.430075   0.000000   0.000000
     40          5.814953        6.545956   0.000000   0.000000
     41          6.212047        6.992434   0.000000   0.000000
     42          7.672776        7.858433   0.000000   0.000000
     43          7.802334        8.124183   0.000000   0.000000
     44          7.905403        8.440319   0.000000   0.000000
     45          9.428708       10.475829   0.000000   0.000000
     46         10.422350       11.035320   0.000000   0.000000
     47         10.735420       11.066918   0.000000   0.000000
     48         10.752351       11.188252   0.000000   0.000000
 
  0.2500000E+00  0.1286332E-14  0.2000000E+00  0.1000000E+00
      1        -40.747893      -39.452881   1.000000   1.000000
      2        -40.727133      -39.445165   1.000000   1.000000
      3        -40.719870      -39.433325   1.000000   1.000000
      4        -39.456763      -39.293710   1.000000   1.000000
      5        -39.451080      -39.289889   1.000000   1.000000
      6        -39.439119      -39.283362   1.000000   1.000000
      7        -39.293748      -39.274477   1.000000   1.000000
      8        -39.289827      -39.272397   1.000000   1.000000
      9        -39.285989      -39.266000   1.000000   1.000000
     10        -39.280849      -39.248658   1.000000   1.000000
     11        -39.279046      -39.247126   1.000000   1.000000
     12        -39.268739      -39.245219   1.000000   1.000000
     13        -39.243904      -39.234160   1.000000   1.000000
     14        -39.242365      -39.212005   1.000000   1.000000
     15        -39.238593      -39.203680   1.000000   1.000000
     16        -39.229663      -38.834208   1.000000   1.000000
     17        -39.205902      -38.831782   1.000000   1.000000
     18        -39.196221      -38.829649   1.000000   1.000000
     19        -38.834321      -37.141325   1.000000   1.000000
     20        -38.831746      -37.130539   1.000000   1.000000
     21        -38.827211      -37.036741   1.000000   1.000000
     22         -5.874403       -5.997543   1.000000   1.000000
     23         -2.619033       -2.462256   1.000000   1.000000
     24         -0.738840       -0.607459   1.000000   1.000000
     25         -0.068707        0.166415   1.000000   1.000000
     26          0.073213        0.277701   1.000000   1.000000
     27          1.178553        1.639173   1.000000   1.000000
     28          1.247367        1.994763   1.000000   1.000000
     29          1.648820        2.305770   1.000000   1.000000
     30          1.706129        3.185469   1.000000   0.948975
     31          1.874646        3.525345   1.000000   0.003923
     32          2.295249        3.799156   1.000000  -0.000296
     33          2.561952        4.289154   1.000000   0.000000
     34          3.073757        4.656958   0.950879   0.000000
     35          3.520056        5.307841   0.060821   0.000000
     36          4.441578        5.452665   0.000000   0.000000
     37          4.635183        5.651180   0.000000   0.000000
     38          5.020752        6.179282   0.000000   0.000000
     39          5.858093        6.260895   0.000000   0.000000
     40          6.324389        6.815784   0.000000   0.000000
     41          7.009747        7.583245   0.000000   0.000000
     42          7.469397        7.672290   0.000000   0.000000
     43          7.790465        8.139052   0.000000   0.000000
     44          8.102484        8.460052   0.000000   0.000000
     45          9.238148        9.391770   0.000000   0.000000
     46          9.426917        9.869492   0.000000   0.000000
     47          9.498087       10.317164   0.000000   0.000000
     48          9.967733       11.298772   0.000000   0.000000
 
  0.5000000E+00  0.1315089E-14  0.2000000E+00  0.5000000E-01
      1        -40.747887      -39.452314   1.000000   1.000000
      2        -40.727089      -39.444745   1.000000   1.000000
      3        -40.719730      -39.433280   1.000000   1.000000
      4        -39.456227      -39.292899   1.000000   1.000000
      5        -39.450656      -39.290464   1.000000   1.000000
      6        -39.439076      -39.279264   1.000000   1.000000
      7        -39.292726      -39.273732   1.000000   1.000000
      8        -39.290344      -39.273047   1.000000   1.000000
      9        -39.282266      -39.270889   1.000000   1.000000
     10        -39.280573      -39.248475   1.000000   1.000000
     11        -39.279369      -39.247198   1.000000   1.000000
     12        -39.273399      -39.239389   1.000000   1.000000
     13        -39.243669      -39.239023   1.000000   1.000000
     14        -39.242493      -39.208397   1.000000   1.000000
     15        -39.233840      -39.208083   1.000000   1.000000
     16        -39.233473      -38.834398   1.000000   1.000000
     17        -39.201806      -38.831765   1.000000   1.000000
     18        -39.201422      -38.829800   1.000000   1.000000
     19        -38.834507      -37.141467   1.000000   1.000000
     20        -38.831720      -37.130534   1.000000   1.000000
     21        -38.827363      -37.036789   1.000000   1.000000
     22         -5.764386       -5.912843   1.000000   1.000000
     23         -2.637654       -2.386947   1.000000   1.000000