       N       E                     dE             d eps       ncg     rms          rms(c)
DAV:   1     0.655913434784E+03    0.65591E+03   -0.42209E+04  5040   0.137E+03
DAV:   2     0.973968262535E+01   -0.64617E+03   -0.61937E+03  4360   0.430E+02
DAV:   3    -0.220729299458E+02   -0.31813E+02   -0.30631E+02  4912   0.103E+02
DAV:   4    -0.230914084388E+02   -0.10185E+01   -0.10137E+01  4592   0.141E+01
DAV:   5    -0.231162744984E+02   -0.24866E-01   -0.24869E-01  5336   0.221E+00    0.192E+01
RMM:   6    -0.285091653812E+02   -0.53929E+01   -0.20386E+01  4032   0.168E+01    0.269E+01
RMM:   7    -0.232458744976E+02    0.52633E+01   -0.47932E+00  4032   0.789E+00    0.121E+01
RMM:   8    -0.220619464786E+02    0.11839E+01   -0.11546E+00  4034   0.449E+00    0.730E+00
RMM:   9    -0.223429555018E+02   -0.28101E+00   -0.15021E-01  3961   0.131E+00    0.437E+00
RMM:  10    -0.225023399513E+02   -0.15938E+00   -0.16101E-01  4061   0.124E+00    0.790E-01
RMM:  11    -0.224992067746E+02    0.31332E-02   -0.24583E-02  3480   0.655E-01    0.908E-01
RMM:  12    -0.225017373863E+02   -0.25306E-02   -0.65237E-03  3238   0.348E-01    0.153E-01
RMM:  13    -0.225021875108E+02   -0.45012E-03   -0.15633E-03  3211   0.170E-01    0.704E-02
RMM:  14    -0.225022759274E+02   -0.88417E-04   -0.46533E-04  2719   0.845E-02
   1 F= -.22502276E+02 E0= -.22502276E+02  d E =-.225023E+02  mag=     4.1393
       N       E                     dE             d eps       ncg     rms          rms(c)
DAV:   1    -0.225030459867E+02   -0.85848E-03   -0.60491E-01  4840   0.526E+00    0.180E-01
RMM:   2    -0.225043295266E+02   -0.12835E-02   -0.14866E-02  3720   0.625E-01    0.129E-01
RMM:   3    -0.225047543673E+02   -0.42484E-03   -0.23129E-03  3147   0.268E-01    0.709E-02
RMM:   4    -0.225046809714E+02    0.73396E-04   -0.53111E-04  2320   0.123E-01
   2 F= -.22504681E+02 E0= -.22504681E+02  d E =-.240504E-02  mag=     4.1386
       N       E                     dE             d eps       ncg     rms          rms(c)
DAV:   1    -0.224978460407E+02    0.69083E-02   -0.54239E+00  4288   0.158E+01    0.536E-01
RMM:   2    -0.225104012110E+02   -0.12555E-01   -0.13006E-01  4006   0.188E+00    0.357E-01
RMM:   3    -0.225127058744E+02   -0.23047E-02   -0.20592E-02  3798   0.780E-01    0.223E-01
RMM:   4    -0.225123684681E+02    0.33741E-03   -0.31451E-03  3472   0.353E-01
   3 F= -.22512368E+02 E0= -.22512368E+02  d E =-.100925E-01  mag=     4.1405
       N       E                     dE             d eps       ncg     rms          rms(c)
DAV:   1    -0.225195690409E+02   -0.68632E-02   -0.11130E+00  4280   0.722E+00    0.836E-01
RMM:   2    -0.225255383773E+02   -0.59693E-02   -0.48633E-02  4032   0.136E+00    0.113E+00
RMM:   3    -0.225154830827E+02    0.10055E-01   -0.10996E-02  3775   0.617E-01    0.237E-01
RMM:   4    -0.225151756027E+02    0.30748E-03   -0.12690E-03  3096   0.239E-01
   4 F= -.22515176E+02 E0= -.22515176E+02  d E =-.280713E-02  mag=     4.1388
       N       E                     dE             d eps       ncg     rms          rms(c)
DAV:   1    -0.225187370299E+02   -0.32539E-02   -0.56963E-01  4344   0.516E+00    0.626E-01
RMM:   2    -0.225228925737E+02   -0.41555E-02   -0.27105E-02  4032   0.988E-01    0.879E-01
RMM:   3    -0.225164706266E+02    0.64219E-02   -0.66309E-03  3502   0.463E-01    0.179E-01
RMM:   4    -0.225163181874E+02    0.15244E-03   -0.67547E-04  2727   0.165E-01
   5 F= -.22516318E+02 E0= -.22516318E+02  d E =-.394972E-02  mag=     4.1372
