 vasp.6.4.3 19Mar24 (build Feb 19 2025 12:53:47) complex                         
 executed on              LinuxNV date 2025.04.25  10:20:06
 running    8 mpi-ranks, with    1 threads/rank, on    1 nodes
 distrk:  each k-point on    8 cores,    1 groups
 distr:  one band on NCORE=   1 cores,    8 groups
 OpenACC runtime initialized ...    8 GPUs detected


--------------------------------------------------------------------------------------------------------


 INCAR:
   ALGO = Fast
   EDIFF = 0.0004
   ENCUT = 520.0
   IBRION = 2
   ISIF = 3
   ISMEAR = -5
   ISPIN = 2
   LASPH = True
   LMAXMIX = 4
   LORBIT = 11
   LREAL = Auto
   LWAVE = False
   MAGMOM = 6*0.6 1*5 1*0.6
   NELM = 100
   NSW = 99
   PREC = Accurate
   SIGMA = 0.05

 POTCAR:    PAW_PBE Mg_pv 13Apr2007               
 POTCAR:    PAW_PBE Cr_pv 02Aug2007               
 POTCAR:    PAW_PBE C 08Apr2002                   
 POTCAR:    PAW_PBE Mg_pv 13Apr2007               
   SHA256 =  f474ac0dd33840b9ae76c01d57fea79fdf77cdfbb07d5ade72c65f83c709b62b Mg_pv/POTCAR          
   COPYR  = (c) Copyright 13Apr2007 Georg Kresse                                                    
   COPYR  = This file is part of the software VASP. Any use, copying, and all other rights are regul
   COPYR  = If you do not have a valid VASP license, you may not use, copy or distribute this file. 
   VRHFIN =Mg: p6s2                                                                                 
   LEXCH  = PE                                                                                      
   EATOM  =  1056.7344 eV,   77.6678 Ry                                                             
                                                                                                    
   TITEL  = PAW_PBE Mg_pv 13Apr2007                                                                 
   LULTRA =        F    use ultrasoft PP ?                                                          
   IUNSCR =        1    unscreen: 0-lin 1-nonlin 2-no                                               
   RPACOR =    1.500    partial core radius                                                         
   POMASS =   24.305; ZVAL   =    8.000    mass and valenz                                          
   RCORE  =    2.000    outmost cutoff radius                                                       
   RWIGS  =    2.000; RWIGS  =    1.058    wigner-seitz radius (au A)                               
   ENMAX  =  403.929; ENMIN  =  302.947 eV                                                          
   RCLOC  =    1.506    cutoff for local pot                                                        
   LCOR   =        T    correct aug charges                                                         
   LPAW   =        T    paw PP                                                                      
   EAUG   =  758.780                                                                                
   DEXC   =    0.000                                                                                
   RMAX   =    2.045    core radius for proj-oper                                                   
   RAUG   =    1.300    factor for augmentation sphere                                              
   RDEP   =    2.025    radius for radial grids                                                     
   RDEPT  =    1.557    core radius for aug-charge                                                  
                                                                                                    
   Atomic configuration                                                                             
    5 entries                                                                                       
     n  l   j            E        occ.                                                              
     1  0  0.50     -1259.6230   2.0000                                                             
     2  0  0.50       -79.8442   2.0000                                                             
     2  1  1.50       -46.6121   6.0000                                                             
     3  0  0.50        -4.7055   2.0000                                                             
     3  2  1.50        -1.3606   0.0000                                                             
   Description                                                                                      
     l       E           TYP  RCUT    TYP  RCUT                                                     
     1    -46.6121073     23  1.600                                                                 
     1      2.7211652     23  1.600                                                                 
     0     -4.7054661     23  2.000                                                                 
     0     61.2262170     23  2.000                                                                 
     2     -1.3605826     23  2.000                                                                 
  local pseudopotential read in
  partial core-charges read in
  partial kinetic energy density read in
  atomic valenz-charges read in
  non local Contribution for L=            1  read in
    real space projection operators read in
  non local Contribution for L=            1  read in
    real space projection operators read in
  non local Contribution for L=            0  read in
    real space projection operators read in
  non local Contribution for L=            0  read in
    real space projection operators read in
  non local Contribution for L=            2  read in
    real space projection operators read in
    PAW grid and wavefunctions read in
 
   number of l-projection  operators is LMAX  =            5
   number of lm-projection operators is LMMAX =           13
 
 POTCAR:    PAW_PBE Cr_pv 02Aug2007               
   SHA256 =  c9a7df34d3cdbacf1090e328ef39c0b420964e11c23f63548d1ac9dd218cdba0 Cr_pv/POTCAR          
   COPYR  = (c) Copyright 02Aug2007 Georg Kresse                                                    
   COPYR  = This file is part of the software VASP. Any use, copying, and all other rights are regul
   COPYR  = If you do not have a valid VASP license, you may not use, copy or distribute this file. 
   VRHFIN =Cr : p6d5s1                                                                              
   LEXCH  = PE                                                                                      
   EATOM  =  1647.9177 eV,  121.1185 Ry                                                             
                                                                                                    
   TITEL  = PAW_PBE Cr_pv 02Aug2007                                                                 
   LULTRA =        F    use ultrasoft PP ?                                                          
   IUNSCR =        1    unscreen: 0-lin 1-nonlin 2-no                                               
   RPACOR =    2.080    partial core radius                                                         
   POMASS =   51.996; ZVAL   =   12.000    mass and valenz                                          
   RCORE  =    2.300    outmost cutoff radius                                                       
   RWIGS  =    2.500; RWIGS  =    1.323    wigner-seitz radius (au A)                               
   ENMAX  =  265.681; ENMIN  =  199.261 eV                                                          
   ICORE  =        3    local potential                                                             
   LCOR   =        T    correct aug charges                                                         
   LPAW   =        T    paw PP                                                                      
   EAUG   =  519.424                                                                                
   DEXC   =    0.000                                                                                
   RMAX   =    2.356    core radius for proj-oper                                                   
   RAUG   =    1.300    factor for augmentation sphere                                              
   RDEP   =    2.447    radius for radial grids                                                     
   RDEPT  =    1.882    core radius for aug-charge                                                  
                                                                                                    
   Atomic configuration                                                                             
    8 entries                                                                                       
     n  l   j            E        occ.                                                              
     1  0  0.50     -5880.4963   2.0000                                                             
     2  0  0.50      -667.0865   2.0000                                                             
     2  1  1.50      -560.6250   6.0000                                                             
     3  0  0.50       -73.9860   2.0000                                                             
     3  1  1.50       -45.4378   6.0000                                                             
     3  2  2.50        -2.9137   5.0000                                                             
     4  0  0.50        -4.0071   1.0000                                                             
     4  3  2.50        -1.3606   0.0000                                                             
   Description                                                                                      
     l       E           TYP  RCUT    TYP  RCUT                                                     
     1    -45.4377911     23  2.000                                                                 
     1      1.3605826     23  2.000                                                                 
     2     -2.9136672     23  2.300                                                                 
     2     -4.2742498     23  2.300                                                                 
     0     -4.0071320     23  2.300                                                                 
     0      9.4498803     23  2.300                                                                 
     3      2.7211652     23  2.300                                                                 
  local pseudopotential read in
  partial core-charges read in
  partial kinetic energy density read in
  atomic valenz-charges read in
  non local Contribution for L=            1  read in
    real space projection operators read in
  non local Contribution for L=            1  read in
    real space projection operators read in
  non local Contribution for L=            2  read in
    real space projection operators read in
  non local Contribution for L=            2  read in
    real space projection operators read in
  non local Contribution for L=            0  read in
    real space projection operators read in
  non local Contribution for L=            0  read in
    real space projection operators read in
    PAW grid and wavefunctions read in
 
   number of l-projection  operators is LMAX  =            6
   number of lm-projection operators is LMMAX =           18
 
 POTCAR:    PAW_PBE C 08Apr2002                   
   SHA256 =  253f7b50bb8d59471dbedb8285d89021f4a42ed1a2c5d38a03a736e69125dd95 C/POTCAR              
   COPYR  = (c) Copyright 08Apr2002 Georg Kresse                                                    
   COPYR  = This file is part of the software VASP. Any use, copying, and all other rights are regul
   COPYR  = If you do not have a valid VASP license, you may not use, copy or distribute this file. 
   VRHFIN =C: s2p2                                                                                  
   LEXCH  = PE                                                                                      
   EATOM  =   147.1560 eV,   10.8157 Ry                                                             
                                                                                                    
   TITEL  = PAW_PBE C 08Apr2002                                                                     
   LULTRA =        F    use ultrasoft PP ?                                                          
   IUNSCR =        1    unscreen: 0-lin 1-nonlin 2-no                                               
   RPACOR =    1.200    partial core radius                                                         
   POMASS =   12.011; ZVAL   =    4.000    mass and valenz                                          
   RCORE  =    1.500    outmost cutoff radius                                                       
   RWIGS  =    1.630; RWIGS  =    0.863    wigner-seitz radius (au A)                               
   ENMAX  =  400.000; ENMIN  =  300.000 eV                                                          
   ICORE  =        2    local potential                                                             
   LCOR   =        T    correct aug charges                                                         
   LPAW   =        T    paw PP                                                                      
   EAUG   =  644.873                                                                                
   DEXC   =    0.000                                                                                
   RMAX   =    1.529    core radius for proj-oper                                                   
   RAUG   =    1.300    factor for augmentation sphere                                              
   RDEP   =    1.501    radius for radial grids                                                     
   RDEPT  =    1.300    core radius for aug-charge                                                  
                                                                                                    
   Atomic configuration                                                                             
    4 entries                                                                                       
     n  l   j            E        occ.                                                              
     1  0  0.50      -273.3789   2.0000                                                             
     2  0  0.50       -13.7508   2.0000                                                             
     2  1  0.50        -5.2854   2.0000                                                             
     3  2  1.50        -5.4423   0.0000                                                             
   Description                                                                                      
     l       E           TYP  RCUT    TYP  RCUT                                                     
     0    -13.7508458     23  1.200                                                                 
     0     -8.2022199     23  1.200                                                                 
     1     -5.2854383     23  1.500                                                                 
     1     34.0145650     23  1.500                                                                 
     2     -5.4423304      7  1.500                                                                 
  local pseudopotential read in
  partial core-charges read in
  partial kinetic energy density read in
  atomic valenz-charges read in
  non local Contribution for L=            0  read in
    real space projection operators read in
  non local Contribution for L=            0  read in
    real space projection operators read in
  non local Contribution for L=            1  read in
    real space projection operators read in
  non local Contribution for L=            1  read in
    real space projection operators read in
    PAW grid and wavefunctions read in
 
   number of l-projection  operators is LMAX  =            4
   number of lm-projection operators is LMMAX =            8
 
 -----------------------------------------------------------------------------
|                                                                             |
|               ----> ADVICE to this user running VASP <----                  |
|                                                                             |
|     You have a (more or less) 'small supercell' and for smaller cells       |
|     it is recommended to use the reciprocal-space projection scheme!        |
|     The real-space optimization is not efficient for small cells and it     |
|     is also less accurate ...                                               |
|     Therefore, set LREAL=.FALSE. in the INCAR file.                         |
|                                                                             |
 -----------------------------------------------------------------------------

 Optimization of the real space projectors (new method)

 maximal supplied QI-value         = 18.90
 optimisation between [QCUT,QGAM] = [ 11.53, 23.24] = [ 37.21,151.29] Ry 
 Optimized for a Real-space Cutoff    1.28 Angstroem

   l    n(q)    QCUT    max X(q) W(low)/X(q) W(high)/X(q)  e(spline) 
   1      8    11.527     2.974    0.44E-04    0.56E-04    0.12E-06
   1      8    11.527     4.279    0.12E-03    0.12E-03    0.26E-06
   0      9    11.527    16.381    0.46E-04    0.64E-04    0.78E-07
   0      9    11.527     5.611    0.26E-04    0.43E-04    0.55E-07
   2      8    11.527     4.652    0.22E-03    0.72E-04    0.47E-07
 Optimization of the real space projectors (new method)

 maximal supplied QI-value         = 16.25
 optimisation between [QCUT,QGAM] = [ 11.54, 23.24] = [ 37.28,151.24] Ry 
 Optimized for a Real-space Cutoff    1.32 Angstroem

   l    n(q)    QCUT    max X(q) W(low)/X(q) W(high)/X(q)  e(spline) 
   1      9    11.539     3.262    0.69E-04    0.25E-03    0.10E-06
   1      9    11.539     5.741    0.20E-03    0.59E-03    0.25E-06
   2      8    11.539    60.438    0.24E-03    0.41E-03    0.22E-06
   2      8    11.539    55.380    0.24E-03    0.42E-03    0.23E-06
   0      9    11.539    80.273    0.11E-03    0.13E-03    0.76E-07
   0      9    11.539    36.654    0.95E-04    0.12E-03    0.68E-07
 Optimization of the real space projectors (new method)

 maximal supplied QI-value         = 25.13
 optimisation between [QCUT,QGAM] = [ 11.56, 23.12] = [ 37.43,149.72] Ry 
 Optimized for a Real-space Cutoff    1.04 Angstroem

   l    n(q)    QCUT    max X(q) W(low)/X(q) W(high)/X(q)  e(spline) 
   0      7    11.561   115.676    0.20E-03    0.60E-03    0.21E-06
   0      7    11.561    87.132    0.20E-03    0.59E-03    0.21E-06
   1      7    11.561     4.429    0.23E-03    0.35E-03    0.15E-06
   1      7    11.561     2.733    0.18E-03    0.25E-03    0.12E-06
  PAW_PBE Mg_pv 13Apr2007               :
 energy of atom  1       EATOM=-1056.7344
 kinetic energy error for atom=    0.0340 (will be added to EATOM!!)
  PAW_PBE Cr_pv 02Aug2007               :
 energy of atom  2       EATOM=-1647.9177
 kinetic energy error for atom=    0.0057 (will be added to EATOM!!)
  PAW_PBE C 08Apr2002                   :
 energy of atom  3       EATOM= -147.1560
 kinetic energy error for atom=    0.0071 (will be added to EATOM!!)
 
 
 POSCAR: Mg6 Cr1 C1
  positions in direct lattice
  No initial velocities read in


 exchange-correlation table for PE
   RHO(1)=    0.500       N(1)  =     2000
   RHO(2)=  100.500       N(2)  =     4000
 


--------------------------------------------------------------------------------------------------------


 ion  position               nearest neighbor table
   1  0.664  0.836  0.000-
   2  0.164  0.336  0.000-
   3  0.849  0.670  0.500-
   4  0.330  0.151  0.500-
   5  0.829  0.171  0.500-
   6  0.323  0.677  0.500-
   7  0.666  0.334  0.000-
   8  0.174  0.826  0.000-
 
  LATTYP: Found a base centered orthorhombic cell.
 ALAT       =     6.1741680000
 B/A-ratio  =     1.6959972583
 C/A-ratio  =     0.7499829937
  
  Lattice vectors:
  
 A1 = (   3.0870840000,  -5.2356860000,   0.0000000000)
 A2 = (   3.0870840000,   5.2356860000,   0.0000000000)
 A3 = (   0.0000000000,   0.0000000000,   4.6305210000)


Analysis of symmetry for initial positions (statically):
=====================================================================
 Subroutine PRICEL returns:
 Original cell was already a primitive cell.
 

 Routine SETGRP: Setting up the symmetry group for a 
 base centered orthorhombic supercell.


 Subroutine GETGRP returns: Found  4 space group operations
 (whereof  4 operations were pure point group operations)
 out of a pool of  8 trial point group operations.


The static configuration has the point symmetry C_2v.


Analysis of symmetry for dynamics (positions and initial velocities):
=====================================================================
 Subroutine PRICEL returns:
 Original cell was already a primitive cell.
 

 Routine SETGRP: Setting up the symmetry group for a 
 base centered orthorhombic supercell.


 Subroutine GETGRP returns: Found  4 space group operations
 (whereof  4 operations were pure point group operations)
 out of a pool of  8 trial point group operations.


The dynamic configuration has the point symmetry C_2v.


Analysis of structural, dynamic, and magnetic symmetry:
=====================================================================
 Subroutine PRICEL returns:
 Original cell was already a primitive cell.
 

 Routine SETGRP: Setting up the symmetry group for a 
 base centered orthorhombic supercell.


 Subroutine GETGRP returns: Found  4 space group operations
 (whereof  4 operations were pure point group operations)
 out of a pool of  8 trial point group operations.


The overall configuration has the point symmetry C_2v.


 Subroutine INISYM returns: Found  4 space group operations
 (whereof  4 operations are pure point group operations),
 and found     1 'primitive' translations


----------------------------------------------------------------------------------------

                                     Primitive cell                                     

  volume of cell :     149.6862

  direct lattice vectors                    reciprocal lattice vectors
     3.087084000 -5.235686000  0.000000000     0.161965143 -0.095498470  0.000000000
     3.087084000  5.235686000  0.000000000     0.161965143  0.095498470 -0.000000000
     0.000000000  0.000000000  4.630521000    -0.000000000  0.000000000  0.215958420

  length of vectors
     6.078033853  6.078033853  4.630521000     0.188023044  0.188023044  0.215958420

  position of ions in fractional coordinates (direct lattice)
     0.663962000  0.835851000  0.000000000
     0.164149000  0.336038000  0.000000000
     0.849043000  0.669581000  0.500000000
     0.330419000  0.150957000  0.500000000
     0.828875000  0.171125000  0.500000000
     0.323049000  0.676951000  0.500000000
     0.666445000  0.333555000  0.000000000
     0.174062000  0.825938000  0.000000000

  ion indices of the primitive-cell ions
   primitive index   ion index
                 1           1
                 2           2
                 3           3
                 4           4
                 5           5
                 6           6
                 7           7
                 8           8

----------------------------------------------------------------------------------------

 
 
 KPOINTS: pymatgen with grid density = 848 / numbe

Automatic generation of k-mesh.
 Grid dimensions read from file:
 generate k-points for:    4    4    5

 Generating k-lattice:

  Cartesian coordinates                     Fractional coordinates (reciprocal lattice)
     0.040491286 -0.023874617  0.000000000     0.250000000 -0.000000000  0.000000000
     0.040491286  0.023874617 -0.000000000    -0.000000000  0.250000000  0.000000000
    -0.000000000  0.000000000  0.043191684     0.000000000  0.000000000  0.200000000

  Length of vectors
     0.047005761  0.047005761  0.043191684

  Shift w.r.t. Gamma in fractional coordinates (k-lattice)
     0.000000000  0.000000000  0.000000000

 TETIRR: Found    122 inequivalent tetrahedra from      480
 
 Subroutine IBZKPT returns following result:
 ===========================================
 
 Found     21 irreducible k-points:
 
 Following reciprocal coordinates:
            Coordinates               Weight
  0.000000  0.000000  0.000000      1.000000
  0.250000  0.000000  0.000000      4.000000
  0.500000  0.000000  0.000000      2.000000
  0.250000  0.250000  0.000000      2.000000
  0.500000  0.250000  0.000000      4.000000
 -0.250000  0.250000  0.000000      2.000000
  0.500000  0.500000  0.000000      1.000000
  0.000000  0.000000  0.200000      2.000000
  0.250000  0.000000  0.200000      8.000000
  0.500000  0.000000  0.200000      4.000000
  0.250000  0.250000  0.200000      4.000000
  0.500000  0.250000  0.200000      8.000000
 -0.250000  0.250000  0.200000      4.000000
  0.500000  0.500000  0.200000      2.000000
  0.000000  0.000000  0.400000      2.000000
  0.250000  0.000000  0.400000      8.000000
  0.500000  0.000000  0.400000      4.000000
  0.250000  0.250000  0.400000      4.000000
  0.500000  0.250000  0.400000      8.000000
 -0.250000  0.250000  0.400000      4.000000
  0.500000  0.500000  0.400000      2.000000
 
 Following cartesian coordinates:
            Coordinates               Weight
  0.000000  0.000000  0.000000      1.000000
  0.040491 -0.023875  0.000000      4.000000
  0.080983 -0.047749  0.000000      2.000000
  0.080983  0.000000  0.000000      2.000000
  0.121474 -0.023875  0.000000      4.000000
  0.000000  0.047749  0.000000      2.000000
  0.161965  0.000000  0.000000      1.000000
  0.000000  0.000000  0.043192      2.000000
  0.040491 -0.023875  0.043192      8.000000
  0.080983 -0.047749  0.043192      4.000000
  0.080983  0.000000  0.043192      4.000000
  0.121474 -0.023875  0.043192      8.000000
  0.000000  0.047749  0.043192      4.000000
  0.161965  0.000000  0.043192      2.000000
  0.000000  0.000000  0.086383      2.000000
  0.040491 -0.023875  0.086383      8.000000
  0.080983 -0.047749  0.086383      4.000000
  0.080983  0.000000  0.086383      4.000000
  0.121474 -0.023875  0.086383      8.000000
  0.000000  0.047749  0.086383      4.000000
  0.161965  0.000000  0.086383      2.000000
 


--------------------------------------------------------------------------------------------------------




 Dimension of arrays:
   k-points           NKPTS =     21   k-points in BZ     NKDIM =     21   number of bands    NBANDS=     48
   number of dos      NEDOS =    301   number of ions     NIONS =      8
   non local maximal  LDIM  =      6   non local SUM 2l+1 LMDIM =     18
   total plane-waves  NPLWV =  82944
   max r-space proj   IRMAX =   5425   max aug-charges    IRDMAX=  19479
   dimension x,y,z NGX =    48 NGY =   48 NGZ =   36
   dimension x,y,z NGXF=    96 NGYF=   96 NGZF=   72
   support grid    NGXF=    96 NGYF=   96 NGZF=   72
   ions per type =               6   1   1
   NGX,Y,Z   is equivalent  to a cutoff of  13.13, 13.13, 12.92 a.u.
   NGXF,Y,Z  is equivalent  to a cutoff of  26.26, 26.26, 25.85 a.u.

 SYSTEM =  unknown system                          
 POSCAR =  Mg6 Cr1 C1                              

 Startparameter for this run:
   NWRITE =      2    write-flag & timer
   PREC   = accura    normal or accurate (medium, high low for compatibility)
   ISTART =      0    job   : 0-new  1-cont  2-samecut
   ICHARG =      2    charge: 1-file 2-atom 10-const
   ISPIN  =      2    spin polarized calculation?
   LNONCOLLINEAR =      F non collinear calculations
   LSORBIT =      F    spin-orbit coupling
   INIWAV =      1    electr: 0-lowe 1-rand  2-diag
   LASPH  =      T    aspherical Exc in radial PAW
 Electronic Relaxation 1
   ENCUT  =  520.0 eV  38.22 Ry    6.18 a.u.  11.30 11.30  8.61*2*pi/ulx,y,z
   ENINI  =  520.0     initial cutoff
   ENAUG  =  758.8 eV  augmentation charge cutoff
   NELM   =    100;   NELMIN=  2; NELMDL= -5     # of ELM steps 
   EDIFF  = 0.4E-03   stopping-criterion for ELM
   LREAL  =      T    real-space projection
   NLSPLINE    = F    spline interpolate recip. space projectors
   LCOMPAT=      F    compatible to vasp.4.4
   GGA_COMPAT  = T    GGA compatible to vasp.4.4-vasp.4.6
   LMAXPAW     = -100 max onsite density
   LMAXMIX     =    4 max onsite mixed and CHGCAR
   VOSKOWN=      0    Vosko Wilk Nusair interpolation
   ROPT   =   -0.00025  -0.00025  -0.00025
 Ionic relaxation
   EDIFFG = 0.4E-02   stopping-criterion for IOM
   NSW    =     99    number of steps for IOM
   NBLOCK =      1;   KBLOCK =     99    inner block; outer block 
   IBRION =      2    ionic relax: 0-MD 1-quasi-New 2-CG
   NFREE  =      1    steps in history (QN), initial steepest desc. (CG)
   ISIF   =      3    stress and relaxation
   IWAVPR =     11    prediction:  0-non 1-charg 2-wave 3-comb
   ISYM   =      2    0-nonsym 1-usesym 2-fastsym
   LCORR  =      T    Harris-Foulkes like correction to forces

   POTIM  = 0.5000    time-step for ionic-motion
   TEIN   =    0.0    initial temperature
   TEBEG  =    0.0;   TEEND  =   0.0 temperature during run
   SMASS  =  -3.00    Nose mass-parameter (am)
   estimated Nose-frequenzy (Omega)   =  0.10E-29 period in steps = 0.13E+47 mass=  -0.844E-27a.u.
   SCALEE = 1.0000    scale energy and forces
   NPACO  =    256;   APACO  = 10.0  distance and # of slots for P.C.
   PSTRESS=    0.0 pullay stress

  Mass of Ions in am
   POMASS =  24.30 52.00 12.01
  Ionic Valenz
   ZVAL   =   8.00 12.00  4.00
  Atomic Wigner-Seitz radii
   RWIGS  =  -1.00 -1.00 -1.00
  virtual crystal weights 
   VCA    =   1.00  1.00  1.00
   NELECT =      64.0000    total number of electrons
   NUPDOWN=      -1.0000    fix difference up-down

 DOS related values:
   EMIN   =  10.00;   EMAX   =-10.00  energy-range for DOS
   EFERMI =   0.00;   METHOD = LEGACY      
   ISMEAR =    -5;   SIGMA  =   0.05  broadening in eV -4-tet -1-fermi 0-gaus

 Electronic relaxation 2 (details)
   IALGO  =     68    algorithm
   LDIAG  =      T    sub-space diagonalisation (order eigenvalues)
   LSUBROT=      F    optimize rotation matrix (better conditioning)
   TURBO    =      0    0=normal 1=particle mesh
   IRESTART =      0    0=no restart 2=restart with 2 vectors
   NREBOOT  =      0    no. of reboots
   NMIN     =      0    reboot dimension
   EREF     =   0.00    reference energy to select bands
   IMIX   =      4    mixing-type and parameters
     AMIX     =   0.40;   BMIX     =  1.00
     AMIX_MAG =   1.60;   BMIX_MAG =  1.00
     AMIN     =   0.10
     WC   =   100.;   INIMIX=   1;  MIXPRE=   1;  MAXMIX= -45

 Intra band minimization:
   WEIMIN = 0.0010     energy-eigenvalue tresh-hold
   EBREAK =  0.21E-05  absolut break condition
   DEPER  =   0.30     relativ break condition  

   TIME   =   0.40     timestep for ELM

  volume/ion in A,a.u.               =      18.71       126.27
  Fermi-wavevector in a.u.,A,eV,Ry     =   1.233316  2.330628 20.695375  1.521067
  Thomas-Fermi vector in A             =   2.368051
 
 Write flags
   LWAVE        =      F    write WAVECAR
   LDOWNSAMPLE  =      F    k-point downsampling of WAVECAR
   LCHARG       =      T    write CHGCAR
   LVTOT        =      F    write LOCPOT, total local potential
   LVHAR        =      F    write LOCPOT, Hartree potential only
   WRT_POTENTIAL= false  ! write potential to hdf5 file
   LELF         =      F    write electronic localiz. function (ELF)
   LORBIT       =     11    0 simple, 1 ext, 2 COOP (PROOUT), +10 PAW based schemes


 Dipole corrections
   LMONO      =      F    monopole corrections only (constant potential shift)
   LDIPOL     =      F    correct potential (dipole corrections)
   IDIPOL     =      0    1-x, 2-y, 3-z, 4-all directions 
   EPSILON    =  1.0000000 bulk dielectric constant
   LVACPOTAV  =      F  vacuum potentials using an averaging scheme for the charge density
   VACPOTFLAT =  0.1000000 required flatness to determine vacuum potential
 Exchange correlation treatment:
   GGA     = PE    functional components
   XC_C    = 1    coefficients multiplying the functional components
   LIBXC   =     F    Libxc                    
   VOSKOWN =     0    Vosko Wilk Nusair interpolation
   LHFCALC =     F    Hartree Fock is set to
   LHFONE  =     F    Hartree Fock one center treatment
   AEXX    =    0.0000 exact exchange contribution

 Parameters of functionals:
   PE:
     No parameter
 
 Van der Waals corrections
   IVDW    =     0    specifies the selected vdW correction

 Linear response parameters
   LEPSILON=     F    determine dielectric tensor
   LRPA    =     F    only Hartree local field effects (RPA)
   LNABLA  =     F    use nabla operator in PAW spheres
   LVEL    =     F    velocity operator in full k-point grid
   CSHIFT  =0.1000    complex shift for real part using Kramers Kronig
   OMEGAMAX=  -1.0    maximum frequency
   DEG_THRESHOLD= 0.2000000E-02 threshold for treating states as degnerate
   RTIME   =   -0.100 relaxation time in fs
  (WPLASMAI=    0.000 imaginary part of plasma frequency in eV, 0.658/RTIME)
   DFIELD  = 0.0000000 0.0000000 0.0000000 field for delta impulse in time
 
  Optional k-point grid parameters
   LKPOINTS_OPT  =     F    use optional k-point grid
   KPOINTS_OPT_MODE=     1    mode for optional k-point grid
 
 Orbital magnetization related:
   ORBITALMAG=     F  switch on orbital magnetization
   LCHIMAG   =     F  perturbation theory with respect to B field
   DQ        =  0.001000  dq finite difference perturbation B field
   LLRAUG    =     F  two centre corrections for induced B field
   LBONE     =     F  B-component reconstruction in AE one-centre
   LVGVCALC  =     T  calculate vGv susceptibility
   LVGVAPPL  =     F  apply vGv susceptibility instead of pGv for G=0

 Random number generation:
   RANDOM_GENERATOR = DEFAULT
   PCG_SEED         = not used


--------------------------------------------------------------------------------------------------------


 conjugate gradient relaxation of ions
 charge density and potential will be updated during run
 spin polarized calculation
 RMM-DIIS sequential band-by-band and
  variant of blocked Davidson during initial phase
 perform sub-space diagonalisation
    before iterative eigenvector-optimisation
 modified Broyden-mixing scheme, WC =      100.0
 initial mixing is a Kerker type mixing with AMIX =  0.4000 and BMIX =      1.0000
 Hartree-type preconditioning will be used
 using additional bands            16
 real space projection scheme for non local part
 use partial core corrections
 calculate Harris-corrections to forces 
   (improved forces if not selfconsistent)
 use gradient corrections 
 use of overlap-Matrix (Vanderbilt PP)
 Fermi weights with tetrahedron method with Bloechl corrections


--------------------------------------------------------------------------------------------------------


  energy-cutoff  :      520.00
  volume of cell :      149.69
      direct lattice vectors                 reciprocal lattice vectors
     3.087084000 -5.235686000  0.000000000     0.161965143 -0.095498470  0.000000000
     3.087084000  5.235686000  0.000000000     0.161965143  0.095498470 -0.000000000
     0.000000000  0.000000000  4.630521000    -0.000000000  0.000000000  0.215958420

  length of vectors
     6.078033853  6.078033853  4.630521000     0.188023044  0.188023044  0.215958420


 
 k-points in units of 2pi/SCALE and weight: pymatgen with grid density = 848 / numbe
   0.00000000  0.00000000  0.00000000       0.013
   0.04049129 -0.02387462  0.00000000       0.050
   0.08098257 -0.04774923  0.00000000       0.025
   0.08098257 -0.00000000  0.00000000       0.025
   0.12147386 -0.02387462  0.00000000       0.050
   0.00000000  0.04774923  0.00000000       0.025
   0.16196514 -0.00000000  0.00000000       0.013
   0.00000000  0.00000000  0.04319168       0.025
   0.04049129 -0.02387462  0.04319168       0.100
   0.08098257 -0.04774923  0.04319168       0.050
   0.08098257 -0.00000000  0.04319168       0.050
   0.12147386 -0.02387462  0.04319168       0.100
   0.00000000  0.04774923  0.04319168       0.050
   0.16196514 -0.00000000  0.04319168       0.025
   0.00000000  0.00000000  0.08638337       0.025
   0.04049129 -0.02387462  0.08638337       0.100
   0.08098257 -0.04774923  0.08638337       0.050
   0.08098257 -0.00000000  0.08638337       0.050
   0.12147386 -0.02387462  0.08638337       0.100
   0.00000000  0.04774923  0.08638337       0.050
   0.16196514 -0.00000000  0.08638337       0.025
 
 k-points in reciprocal lattice and weights: pymatgen with grid density = 848 / numbe
   0.00000000  0.00000000  0.00000000       0.013
   0.25000000  0.00000000  0.00000000       0.050
   0.50000000  0.00000000  0.00000000       0.025
   0.25000000  0.25000000  0.00000000       0.025
   0.50000000  0.25000000  0.00000000       0.050
  -0.25000000  0.25000000  0.00000000       0.025
   0.50000000  0.50000000  0.00000000       0.013
   0.00000000  0.00000000  0.20000000       0.025
   0.25000000  0.00000000  0.20000000       0.100
   0.50000000  0.00000000  0.20000000       0.050
   0.25000000  0.25000000  0.20000000       0.050
   0.50000000  0.25000000  0.20000000       0.100
  -0.25000000  0.25000000  0.20000000       0.050
   0.50000000  0.50000000  0.20000000       0.025
   0.00000000  0.00000000  0.40000000       0.025
   0.25000000  0.00000000  0.40000000       0.100
   0.50000000  0.00000000  0.40000000       0.050
   0.25000000  0.25000000  0.40000000       0.050
   0.50000000  0.25000000  0.40000000       0.100
  -0.25000000  0.25000000  0.40000000       0.050
   0.50000000  0.50000000  0.40000000       0.025
 
 position of ions in fractional coordinates (direct lattice) 
   0.66396200  0.83585100  0.00000000
   0.16414900  0.33603800  0.00000000
   0.84904300  0.66958100  0.50000000
   0.33041900  0.15095700  0.50000000
   0.82887500  0.17112500  0.50000000
   0.32304900  0.67695100  0.50000000
   0.66644500  0.33355500  0.00000000
   0.17406200  0.82593800  0.00000000
 
 position of ions in cartesian coordinates  (Angst):
   4.63004872  0.89995683  0.00000000
   1.54411928  0.89995683  0.00000000
   4.68811985 -0.93960668  2.31526050
   1.48604815 -0.93960668  2.31526050
   3.08708400 -3.44377247  2.31526050
   3.08708400  1.85291975  2.31526050
   3.08708400 -1.74290751  0.00000000
   3.08708400  3.41301805  0.00000000
 


--------------------------------------------------------------------------------------------------------


 k-point     1 :   0.0000 0.0000 0.0000  plane waves:    4077
 k-point     2 :   0.2500 0.0000 0.0000  plane waves:    4025
 k-point     3 :   0.5000 0.0000 0.0000  plane waves:    4028
 k-point     4 :   0.2500 0.2500 0.0000  plane waves:    4023
 k-point     5 :   0.5000 0.2500 0.0000  plane waves:    4035
 k-point     6 :  -0.2500 0.2500 0.0000  plane waves:    4039
 k-point     7 :   0.5000 0.5000 0.0000  plane waves:    4056
 k-point     8 :   0.0000 0.0000 0.2000  plane waves:    4037
 k-point     9 :   0.2500 0.0000 0.2000  plane waves:    4034
 k-point    10 :   0.5000 0.0000 0.2000  plane waves:    4014
 k-point    11 :   0.2500 0.2500 0.2000  plane waves:    4015
 k-point    12 :   0.5000 0.2500 0.2000  plane waves:    4038
 k-point    13 :  -0.2500 0.2500 0.2000  plane waves:    4036
 k-point    14 :   0.5000 0.5000 0.2000  plane waves:    4042
 k-point    15 :   0.0000 0.0000 0.4000  plane waves:    4032
 k-point    16 :   0.2500 0.0000 0.4000  plane waves:    4038
 k-point    17 :   0.5000 0.0000 0.4000  plane waves:    4028
 k-point    18 :   0.2500 0.2500 0.4000  plane waves:    4011
 k-point    19 :   0.5000 0.2500 0.4000  plane waves:    4019
 k-point    20 :  -0.2500 0.2500 0.4000  plane waves:    4021
 k-point    21 :   0.5000 0.5000 0.4000  plane waves:    4016

 maximum and minimum number of plane-waves per node :      4077     4011

 maximum number of plane-waves:      4077
 maximum index in each direction: 
   IXMAX=   11   IYMAX=   11   IZMAX=    8
   IXMIN=  -11   IYMIN=  -11   IZMIN=   -9


 serial   3D FFT for wavefunctions
 parallel 3D FFT for charge:
    minimum data exchange during FFTs selected (reduces bandwidth)


 total amount of memory used by VASP MPI-rank0    69501. kBytes
=======================================================================

   base      :      30000. kBytes
   nonlr-proj:       5003. kBytes
   fftplans  :       3207. kBytes
   grid      :      14174. kBytes
   one-center:        248. kBytes
   wavefun   :      16869. kBytes
 
     INWAV:  cpu time      0.0003: real time      0.0008
 Broyden mixing: mesh for mixing (old mesh)
   NGX = 23   NGY = 23   NGZ = 17
  (NGX  = 96   NGY  = 96   NGZ  = 72)
  gives a total of   8993 points

 initial charge density was supplied:
 charge density of overlapping atoms calculated
 number of electron      64.0000000 magnetization       9.2000000
 keeping initial charge density in first step


--------------------------------------------------------------------------------------------------------


 Maximum index for non-local projection operator          5204
 Maximum index for augmentation-charges          2357 (set IRDMAX)


--------------------------------------------------------------------------------------------------------


 First call to EWALD:  gamma=   0.334
 Maximum number of real-space cells 3x 3x 3
 Maximum number of reciprocal cells 3x 3x 2

    FEWALD:  cpu time      0.0084: real time      0.0084


--------------------------------------- Ionic step        1  -------------------------------------------




--------------------------------------- Iteration      1(   1)  ---------------------------------------


    POTLOK:  cpu time      2.2226: real time      2.7874
    SETDIJ:  cpu time      0.7123: real time      0.7113
     EDDAV:  cpu time      1.7554: real time      1.7528
 BZINTS: Fermi energy:   14.310326;   64.000000 electrons
         Band energy:-0.926076E+03;  BLOECHL correction:   -0.140535
       DOS:  cpu time      0.0213: real time      0.0213
    --------------------------------------------
      LOOP:  cpu time      4.7117: real time      5.2729

 eigenvalue-minimisations  :  5040
 total energy-change (2. order) : 0.6559134E+03  (-0.4220875E+04)
 number of electron      64.0000000 magnetization       9.2000000
 augmentation part       64.0000000 magnetization       9.2000000

 Free energy of the ion-electron system (eV)
  ---------------------------------------------------
  alpha Z        PSCENC =       224.65487173
  Ewald energy   TEWEN  =     -4113.30148578
  -Hartree energ DENC   =     -2135.66755862
  -exchange      EXHF   =         0.00000000
  -V(xc)+E(xc)   XCENC  =       227.54239711
  PAW double counting   =      5306.85155175    -6063.35302485
  entropy T*S    EENTRO =         0.00000000
  eigenvalues    EBANDS =      -926.07646034
  atomic energy  EATOM  =      8135.26314379
  Solvation  Ediel_sol  =         0.00000000
  ---------------------------------------------------
  free energy    TOTEN  =       655.91343478 eV

  energy without entropy =      655.91343478  energy(sigma->0) =      655.91343478


--------------------------------------------------------------------------------------------------------




--------------------------------------- Iteration      1(   2)  ---------------------------------------


     EDDAV:  cpu time      1.5195: real time      1.5352
 BZINTS: Fermi energy:    4.319370;   64.000000 electrons
         Band energy:-0.157225E+04;  BLOECHL correction:   -0.064399
       DOS:  cpu time      0.0245: real time      0.0245
    --------------------------------------------
      LOOP:  cpu time      1.5440: real time      1.5596

 eigenvalue-minimisations  :  4360
 total energy-change (2. order) :-0.6461738E+03  (-0.6193716E+03)
 number of electron      64.0000000 magnetization       9.2000000
 augmentation part       64.0000000 magnetization       9.2000000

 Free energy of the ion-electron system (eV)
  ---------------------------------------------------
  alpha Z        PSCENC =       224.65487173
  Ewald energy   TEWEN  =     -4113.30148578
  -Hartree energ DENC   =     -2135.66755862
  -exchange      EXHF   =         0.00000000
  -V(xc)+E(xc)   XCENC  =       227.54239711
  PAW double counting   =      5306.85155175    -6063.35302485
  entropy T*S    EENTRO =         0.00000000
  eigenvalues    EBANDS =     -1572.25021250
  atomic energy  EATOM  =      8135.26314379
  Solvation  Ediel_sol  =         0.00000000
  ---------------------------------------------------
  free energy    TOTEN  =         9.73968263 eV

  energy without entropy =        9.73968263  energy(sigma->0) =        9.73968263


--------------------------------------------------------------------------------------------------------




--------------------------------------- Iteration      1(   3)  ---------------------------------------


     EDDAV:  cpu time      1.3673: real time      1.3710
 BZINTS: Fermi energy:    3.457953;   64.000000 electrons
         Band energy:-0.160406E+04;  BLOECHL correction:   -0.059931
       DOS:  cpu time      0.0218: real time      0.0218
    --------------------------------------------
      LOOP:  cpu time      1.3891: real time      1.3928

 eigenvalue-minimisations  :  4912
 total energy-change (2. order) :-0.3181261E+02  (-0.3063089E+02)
 number of electron      64.0000000 magnetization       9.2000000
 augmentation part       64.0000000 magnetization       9.2000000

 Free energy of the ion-electron system (eV)
  ---------------------------------------------------
  alpha Z        PSCENC =       224.65487173
  Ewald energy   TEWEN  =     -4113.30148578
  -Hartree energ DENC   =     -2135.66755862
  -exchange      EXHF   =         0.00000000
  -V(xc)+E(xc)   XCENC  =       227.54239711
  PAW double counting   =      5306.85155175    -6063.35302485
  entropy T*S    EENTRO =         0.00000000
  eigenvalues    EBANDS =     -1604.06282507
  atomic energy  EATOM  =      8135.26314379
  Solvation  Ediel_sol  =         0.00000000
  ---------------------------------------------------
  free energy    TOTEN  =       -22.07292995 eV

  energy without entropy =      -22.07292995  energy(sigma->0) =      -22.07292995


--------------------------------------------------------------------------------------------------------




--------------------------------------- Iteration      1(   4)  ---------------------------------------


     EDDAV:  cpu time      1.2347: real time      1.2349
 BZINTS: Fermi energy:    3.436264;   64.000000 electrons
         Band energy:-0.160508E+04;  BLOECHL correction:   -0.060739
       DOS:  cpu time      0.0196: real time      0.0196
    --------------------------------------------
      LOOP:  cpu time      1.2543: real time      1.2545

 eigenvalue-minimisations  :  4592
 total energy-change (2. order) :-0.1018478E+01  (-0.1013728E+01)
 number of electron      64.0000000 magnetization       9.2000000
 augmentation part       64.0000000 magnetization       9.2000000

 Free energy of the ion-electron system (eV)
  ---------------------------------------------------
  alpha Z        PSCENC =       224.65487173
  Ewald energy   TEWEN  =     -4113.30148578
  -Hartree energ DENC   =     -2135.66755862
  -exchange      EXHF   =         0.00000000
  -V(xc)+E(xc)   XCENC  =       227.54239711
  PAW double counting   =      5306.85155175    -6063.35302485
  entropy T*S    EENTRO =         0.00000000
  eigenvalues    EBANDS =     -1605.08130357
  atomic energy  EATOM  =      8135.26314379
  Solvation  Ediel_sol  =         0.00000000
  ---------------------------------------------------
  free energy    TOTEN  =       -23.09140844 eV

  energy without entropy =      -23.09140844  energy(sigma->0) =      -23.09140844


--------------------------------------------------------------------------------------------------------




--------------------------------------- Iteration      1(   5)  ---------------------------------------


     EDDAV:  cpu time      1.2519: real time      1.2516
 BZINTS: Fermi energy:    3.435608;   64.000000 electrons
         Band energy:-0.160511E+04;  BLOECHL correction:   -0.060778
       DOS:  cpu time      0.0124: real time      0.0124
    CHARGE:  cpu time      0.0506: real time      0.0511
    MIXING:  cpu time      0.0017: real time      0.0017
    --------------------------------------------
      LOOP:  cpu time      1.3166: real time      1.3167

 eigenvalue-minimisations  :  5336
 total energy-change (2. order) :-0.2486606E-01  (-0.2486924E-01)
 number of electron      63.9999973 magnetization       4.4988947
 augmentation part       30.4765996 magnetization       2.2254319

 Broyden mixing:
  rms(total) = 0.19155E+01    rms(broyden)= 0.19154E+01
  rms(prec ) = 0.30185E+01
  weight for this iteration     100.00

 Free energy of the ion-electron system (eV)
  ---------------------------------------------------
  alpha Z        PSCENC =       224.65487173
  Ewald energy   TEWEN  =     -4113.30148578
  -Hartree energ DENC   =     -2135.66755862
  -exchange      EXHF   =         0.00000000
  -V(xc)+E(xc)   XCENC  =       227.54239711
  PAW double counting   =      5306.85155175    -6063.35302485
  entropy T*S    EENTRO =         0.00000000
  eigenvalues    EBANDS =     -1605.10616962
  atomic energy  EATOM  =      8135.26314379
  Solvation  Ediel_sol  =         0.00000000
  ---------------------------------------------------
  free energy    TOTEN  =       -23.11627450 eV

  energy without entropy =      -23.11627450  energy(sigma->0) =      -23.11627450


--------------------------------------------------------------------------------------------------------




--------------------------------------- Iteration      1(   6)  ---------------------------------------


    POTLOK:  cpu time      0.0078: real time      0.0090
    SETDIJ:  cpu time      0.4199: real time      0.4195
    EDDIAG:  cpu time      0.0916: real time      0.0915
  RMM-DIIS:  cpu time      0.4284: real time      0.4306
    ORTHCH:  cpu time      0.0325: real time      0.0325
 BZINTS: Fermi energy:    2.367258;   64.000000 electrons
         Band energy:-0.165884E+04;  BLOECHL correction:   -0.159918
       DOS:  cpu time      0.0126: real time      0.0126
    CHARGE:  cpu time      0.0468: real time      0.0467
    MIXING:  cpu time      0.0019: real time      0.0019
    --------------------------------------------
      LOOP:  cpu time      1.0414: real time      1.0442

 eigenvalue-minimisations  :  4032
 total energy-change (2. order) :-0.5392891E+01  (-0.2038634E+01)
 number of electron      63.9999973 magnetization       3.7097837
 augmentation part       33.1034871 magnetization       2.9507158

 Broyden mixing:
  rms(total) = 0.26852E+01    rms(broyden)= 0.26852E+01
  rms(prec ) = 0.62701E+01
  weight for this iteration     100.00

 eigenvalues of (default mixing * dielectric matrix)
  average eigenvalue GAMMA=   0.5545
  0.5545

 Free energy of the ion-electron system (eV)
  ---------------------------------------------------
  alpha Z        PSCENC =       224.65487173
  Ewald energy   TEWEN  =     -4113.30148578
  -Hartree energ DENC   =     -2087.46837146
  -exchange      EXHF   =         0.00000000
  -V(xc)+E(xc)   XCENC  =       225.03554938
  PAW double counting   =      5187.12800116    -5940.97704613
  entropy T*S    EENTRO =         0.00000000
  eigenvalues    EBANDS =     -1658.84382807
  atomic energy  EATOM  =      8135.26314379
  Solvation  Ediel_sol  =         0.00000000
  ---------------------------------------------------
  free energy    TOTEN  =       -28.50916538 eV

  energy without entropy =      -28.50916538  energy(sigma->0) =      -28.50916538


--------------------------------------------------------------------------------------------------------




--------------------------------------- Iteration      1(   7)  ---------------------------------------


    POTLOK:  cpu time      0.0084: real time      0.0092
    SETDIJ:  cpu time      0.3841: real time      0.3837
    EDDIAG:  cpu time      0.0893: real time      0.0892
  RMM-DIIS:  cpu time      0.3522: real time      0.3518
    ORTHCH:  cpu time      0.0324: real time      0.0324
 BZINTS: Fermi energy:    3.769577;   64.000000 electrons
         Band energy:-0.161644E+04;  BLOECHL correction:   -0.070436
       DOS:  cpu time      0.0127: real time      0.0126
    CHARGE:  cpu time      0.0450: real time      0.0450
    MIXING:  cpu time      0.0018: real time      0.0018
    --------------------------------------------
      LOOP:  cpu time      0.9258: real time      0.9258

 eigenvalue-minimisations  :  4032
 total energy-change (2. order) : 0.5263291E+01  (-0.4793223E+00)
 number of electron      63.9999973 magnetization       3.2453551
 augmentation part       30.0860069 magnetization       1.1035286

 Broyden mixing:
  rms(total) = 0.12066E+01    rms(broyden)= 0.12065E+01
  rms(prec ) = 0.27129E+01
  weight for this iteration     100.00

 eigenvalues of (default mixing * dielectric matrix)
  average eigenvalue GAMMA=   0.5236
  0.8208  0.2263

 Free energy of the ion-electron system (eV)
  ---------------------------------------------------
  alpha Z        PSCENC =       224.65487173
  Ewald energy   TEWEN  =     -4113.30148578
  -Hartree energ DENC   =     -2123.28820641
  -exchange      EXHF   =         0.00000000
  -V(xc)+E(xc)   XCENC  =       225.89773255
  PAW double counting   =      5274.57280188    -6030.60878369
  entropy T*S    EENTRO =         0.00000000
  eigenvalues    EBANDS =     -1616.43594856
  atomic energy  EATOM  =      8135.26314379
  Solvation  Ediel_sol  =         0.00000000
  ---------------------------------------------------
  free energy    TOTEN  =       -23.24587450 eV

  energy without entropy =      -23.24587450  energy(sigma->0) =      -23.24587450


--------------------------------------------------------------------------------------------------------




--------------------------------------- Iteration      1(   8)  ---------------------------------------


    POTLOK:  cpu time      0.0067: real time      0.0082
    SETDIJ:  cpu time      0.3850: real time      0.3846
    EDDIAG:  cpu time      0.0893: real time      0.0892
  RMM-DIIS:  cpu time      0.3605: real time      0.3603
    ORTHCH:  cpu time      0.0322: real time      0.0322
 BZINTS: Fermi energy:    3.243499;   64.000000 electrons
         Band energy:-0.163082E+04;  BLOECHL correction:   -0.064643
       DOS:  cpu time      0.0126: real time      0.0125
    CHARGE:  cpu time      0.0451: real time      0.0451
    MIXING:  cpu time      0.0017: real time      0.0017
    --------------------------------------------
      LOOP:  cpu time      0.9332: real time      0.9338

 eigenvalue-minimisations  :  4034
 total energy-change (2. order) : 0.1183928E+01  (-0.1154571E+00)
 number of electron      63.9999973 magnetization       3.5516012
 augmentation part       30.9681743 magnetization       1.5586218

 Broyden mixing:
  rms(total) = 0.73030E+00    rms(broyden)= 0.73029E+00
  rms(prec ) = 0.79474E+00
  weight for this iteration     100.00

 eigenvalues of (default mixing * dielectric matrix)
  average eigenvalue GAMMA=   0.4180
  0.6499  0.3875  0.2166

 Free energy of the ion-electron system (eV)
  ---------------------------------------------------
  alpha Z        PSCENC =       224.65487173
  Ewald energy   TEWEN  =     -4113.30148578
  -Hartree energ DENC   =     -2106.65162729
  -exchange      EXHF   =         0.00000000
  -V(xc)+E(xc)   XCENC  =       224.93281486
  PAW double counting   =      5232.75820541    -5988.90203530
  entropy T*S    EENTRO =         0.00000000
  eigenvalues    EBANDS =     -1630.81583390
  atomic energy  EATOM  =      8135.26314379
  Solvation  Ediel_sol  =         0.00000000
  ---------------------------------------------------
  free energy    TOTEN  =       -22.06194648 eV

  energy without entropy =      -22.06194648  energy(sigma->0) =      -22.06194648


--------------------------------------------------------------------------------------------------------




--------------------------------------- Iteration      1(   9)  ---------------------------------------


    POTLOK:  cpu time      0.0223: real time      0.0230
    SETDIJ:  cpu time      0.3848: real time      0.3846
    EDDIAG:  cpu time      0.0891: real time      0.0890
  RMM-DIIS:  cpu time      0.3603: real time      0.3601
    ORTHCH:  cpu time      0.0323: real time      0.0323
 BZINTS: Fermi energy:    3.236792;   64.000000 electrons
         Band energy:-0.163310E+04;  BLOECHL correction:   -0.072704
       DOS:  cpu time      0.0122: real time      0.0122
    CHARGE:  cpu time      0.0439: real time      0.0437
    MIXING:  cpu time      0.0017: real time      0.0017
    --------------------------------------------
      LOOP:  cpu time      0.9466: real time      0.9466

 eigenvalue-minimisations  :  3961
 total energy-change (2. order) :-0.2810090E+00  (-0.1502077E-01)
 number of electron      63.9999973 magnetization       4.2056970
 augmentation part       31.0371859 magnetization       2.2305919

 Broyden mixing:
  rms(total) = 0.43669E+00    rms(broyden)= 0.43668E+00
  rms(prec ) = 0.47958E+00
  weight for this iteration     100.00

 eigenvalues of (default mixing * dielectric matrix)
  average eigenvalue GAMMA=   0.6171
  0.7837  0.7837  0.2133  0.6875

 Free energy of the ion-electron system (eV)
  ---------------------------------------------------
  alpha Z        PSCENC =       224.65487173
  Ewald energy   TEWEN  =     -4113.30148578
  -Hartree energ DENC   =     -2104.98849534
  -exchange      EXHF   =         0.00000000
  -V(xc)+E(xc)   XCENC  =       225.19744012
  PAW double counting   =      5220.30537253    -5976.37217138
  entropy T*S    EENTRO =         0.00000000
  eigenvalues    EBANDS =     -1633.10163117
  atomic energy  EATOM  =      8135.26314379
  Solvation  Ediel_sol  =         0.00000000
  ---------------------------------------------------
  free energy    TOTEN  =       -22.34295550 eV

  energy without entropy =      -22.34295550  energy(sigma->0) =      -22.34295550


--------------------------------------------------------------------------------------------------------




--------------------------------------- Iteration      1(  10)  ---------------------------------------


    POTLOK:  cpu time      0.0076: real time      0.0083
    SETDIJ:  cpu time      0.3820: real time      0.3817
    EDDIAG:  cpu time      0.0889: real time      0.0889
  RMM-DIIS:  cpu time      0.3580: real time      0.3577
    ORTHCH:  cpu time      0.0321: real time      0.0321
 BZINTS: Fermi energy:    3.240456;   64.000000 electrons
         Band energy:-0.163706E+04;  BLOECHL correction:   -0.078749
       DOS:  cpu time      0.0124: real time      0.0124
    CHARGE:  cpu time      0.0448: real time      0.0448
    MIXING:  cpu time      0.0017: real time      0.0017
    --------------------------------------------
      LOOP:  cpu time      0.9275: real time      0.9275

 eigenvalue-minimisations  :  4061
 total energy-change (2. order) :-0.1593844E+00  (-0.1610066E-01)
 number of electron      63.9999973 magnetization       4.2601463
 augmentation part       31.0781369 magnetization       2.3177243

 Broyden mixing:
  rms(total) = 0.79013E-01    rms(broyden)= 0.78978E-01
  rms(prec ) = 0.12246E+00
  weight for this iteration     100.00

 eigenvalues of (default mixing * dielectric matrix)
  average eigenvalue GAMMA=   0.7535
  0.2132  0.9458  0.9458  0.9717  0.6912

 Free energy of the ion-electron system (eV)
  ---------------------------------------------------
  alpha Z        PSCENC =       224.65487173
  Ewald energy   TEWEN  =     -4113.30148578
  -Hartree energ DENC   =     -2101.42901871
  -exchange      EXHF   =         0.00000000
  -V(xc)+E(xc)   XCENC  =       225.86519188
  PAW double counting   =      5199.72015627    -5956.21180240
  entropy T*S    EENTRO =         0.00000000
  eigenvalues    EBANDS =     -1637.06339672
  atomic energy  EATOM  =      8135.26314379
  Solvation  Ediel_sol  =         0.00000000
  ---------------------------------------------------
  free energy    TOTEN  =       -22.50233995 eV

  energy without entropy =      -22.50233995  energy(sigma->0) =      -22.50233995


--------------------------------------------------------------------------------------------------------




--------------------------------------- Iteration      1(  11)  ---------------------------------------


    POTLOK:  cpu time      0.0084: real time      0.0092
    SETDIJ:  cpu time      0.3884: real time      0.3882
    EDDIAG:  cpu time      0.0909: real time      0.0908
  RMM-DIIS:  cpu time      0.3314: real time      0.3313
    ORTHCH:  cpu time      0.0321: real time      0.0321
 BZINTS: Fermi energy:    3.236717;   64.000000 electrons
         Band energy:-0.163959E+04;  BLOECHL correction:   -0.076912
       DOS:  cpu time      0.0125: real time      0.0125
    CHARGE:  cpu time      0.0444: real time      0.0444
    MIXING:  cpu time      0.0018: real time      0.0018
    --------------------------------------------
      LOOP:  cpu time      0.9100: real time      0.9102

 eigenvalue-minimisations  :  3480
 total energy-change (2. order) : 0.3133177E-02  (-0.2458258E-02)
 number of electron      63.9999973 magnetization       4.1450510
 augmentation part       31.0745158 magnetization       2.2238815

 Broyden mixing:
  rms(total) = 0.90776E-01    rms(broyden)= 0.90773E-01
  rms(prec ) = 0.10518E+00
  weight for this iteration     100.00

 eigenvalues of (default mixing * dielectric matrix)
  average eigenvalue GAMMA=   0.8880
  1.9478  0.9100  0.9100  0.2132  0.7000  0.6473

 Free energy of the ion-electron system (eV)
  ---------------------------------------------------
  alpha Z        PSCENC =       224.65487173
  Ewald energy   TEWEN  =     -4113.30148578
  -Hartree energ DENC   =     -2098.57503447
  -exchange      EXHF   =         0.00000000
  -V(xc)+E(xc)   XCENC  =       225.95654089
  PAW double counting   =      5190.14150001    -5947.05303004
  entropy T*S    EENTRO =         0.00000000
  eigenvalues    EBANDS =     -1639.58571290
  atomic energy  EATOM  =      8135.26314379
  Solvation  Ediel_sol  =         0.00000000
  ---------------------------------------------------
  free energy    TOTEN  =       -22.49920677 eV

  energy without entropy =      -22.49920677  energy(sigma->0) =      -22.49920677


--------------------------------------------------------------------------------------------------------




--------------------------------------- Iteration      1(  12)  ---------------------------------------


    POTLOK:  cpu time      0.0076: real time      0.0084
    SETDIJ:  cpu time      0.3796: real time      0.3793
    EDDIAG:  cpu time      0.0888: real time      0.0888
  RMM-DIIS:  cpu time      0.3056: real time      0.3054
    ORTHCH:  cpu time      0.0333: real time      0.0333
 BZINTS: Fermi energy:    3.230709;   64.000000 electrons
         Band energy:-0.164103E+04;  BLOECHL correction:   -0.076926
       DOS:  cpu time      0.0132: real time      0.0132
    CHARGE:  cpu time      0.0437: real time      0.0436
    MIXING:  cpu time      0.0019: real time      0.0019
    --------------------------------------------
      LOOP:  cpu time      0.8738: real time      0.8738

 eigenvalue-minimisations  :  3238
 total energy-change (2. order) :-0.2530612E-02  (-0.6523746E-03)
 number of electron      63.9999973 magnetization       4.1295147
 augmentation part       31.0784051 magnetization       2.2229634

 Broyden mixing:
  rms(total) = 0.15258E-01    rms(broyden)= 0.15256E-01
  rms(prec ) = 0.22872E-01
  weight for this iteration     100.00

 eigenvalues of (default mixing * dielectric matrix)
  average eigenvalue GAMMA=   0.9328
  2.2296  0.9810  0.9810  0.2132  0.7178  0.7178  0.6893

 Free energy of the ion-electron system (eV)
  ---------------------------------------------------
  alpha Z        PSCENC =       224.65487173
  Ewald energy   TEWEN  =     -4113.30148578
  -Hartree energ DENC   =     -2096.77717697
  -exchange      EXHF   =         0.00000000
  -V(xc)+E(xc)   XCENC  =       225.84793583
  PAW double counting   =      5185.04421916    -5942.19915138
  entropy T*S    EENTRO =         0.00000000
  eigenvalues    EBANDS =     -1641.03409375
  atomic energy  EATOM  =      8135.26314379
  Solvation  Ediel_sol  =         0.00000000
  ---------------------------------------------------
  free energy    TOTEN  =       -22.50173739 eV

  energy without entropy =      -22.50173739  energy(sigma->0) =      -22.50173739


--------------------------------------------------------------------------------------------------------




--------------------------------------- Iteration      1(  13)  ---------------------------------------


    POTLOK:  cpu time      0.0076: real time      0.0084
    SETDIJ:  cpu time      0.3831: real time      0.3828
    EDDIAG:  cpu time      0.0887: real time      0.0886
  RMM-DIIS:  cpu time      0.3101: real time      0.3098
    ORTHCH:  cpu time      0.0323: real time      0.0322
 BZINTS: Fermi energy:    3.229666;   64.000000 electrons
         Band energy:-0.164147E+04;  BLOECHL correction:   -0.077210
       DOS:  cpu time      0.0117: real time      0.0117
    CHARGE:  cpu time      0.0430: real time      0.0430
    MIXING:  cpu time      0.0017: real time      0.0017
    --------------------------------------------
      LOOP:  cpu time      0.8781: real time      0.8781

 eigenvalue-minimisations  :  3211
 total energy-change (2. order) :-0.4501245E-03  (-0.1563254E-03)
 number of electron      63.9999973 magnetization       4.1368322
 augmentation part       31.0815736 magnetization       2.2311246

 Broyden mixing:
  rms(total) = 0.70362E-02    rms(broyden)= 0.70354E-02
  rms(prec ) = 0.87900E-02
  weight for this iteration     100.00

 eigenvalues of (default mixing * dielectric matrix)
  average eigenvalue GAMMA=   0.9738
  2.4048  0.2132  0.9920  0.9920  1.0578  0.7649  0.7114  0.6545

 Free energy of the ion-electron system (eV)
  ---------------------------------------------------
  alpha Z        PSCENC =       224.65487173
  Ewald energy   TEWEN  =     -4113.30148578
  -Hartree energ DENC   =     -2096.23688704
  -exchange      EXHF   =         0.00000000
  -V(xc)+E(xc)   XCENC  =       225.83152926
  PAW double counting   =      5183.05312389    -5940.29857717
  entropy T*S    EENTRO =         0.00000000
  eigenvalues    EBANDS =     -1641.46790618
  atomic energy  EATOM  =      8135.26314379
  Solvation  Ediel_sol  =         0.00000000
  ---------------------------------------------------
  free energy    TOTEN  =       -22.50218751 eV

  energy without entropy =      -22.50218751  energy(sigma->0) =      -22.50218751


--------------------------------------------------------------------------------------------------------




--------------------------------------- Iteration      1(  14)  ---------------------------------------


    POTLOK:  cpu time      0.0074: real time      0.0082
    SETDIJ:  cpu time      0.3851: real time      0.3849
    EDDIAG:  cpu time      0.0887: real time      0.0887
  RMM-DIIS:  cpu time      0.2755: real time      0.2753
    ORTHCH:  cpu time      0.0321: real time      0.0321
 BZINTS: Fermi energy:    3.229881;   64.000000 electrons
         Band energy:-0.164153E+04;  BLOECHL correction:   -0.077284
       DOS:  cpu time      0.0117: real time      0.0117
    --------------------------------------------
      LOOP:  cpu time      0.8005: real time      0.8008

 eigenvalue-minimisations  :  2719
 total energy-change (2. order) :-0.8841665E-04  (-0.4653296E-04)
 number of electron      63.9999973 magnetization       4.1368322
 augmentation part       31.0815736 magnetization       2.2311246

 Free energy of the ion-electron system (eV)
  ---------------------------------------------------
  alpha Z        PSCENC =       224.65487173
  Ewald energy   TEWEN  =     -4113.30148578
  -Hartree energ DENC   =     -2096.13846167
  -exchange      EXHF   =         0.00000000
  -V(xc)+E(xc)   XCENC  =       225.83158540
  PAW double counting   =      5182.17688369    -5939.46305233
  entropy T*S    EENTRO =         0.00000000
  eigenvalues    EBANDS =     -1641.52576076
  atomic energy  EATOM  =      8135.26314379
  Solvation  Ediel_sol  =         0.00000000
  ---------------------------------------------------
  free energy    TOTEN  =       -22.50227593 eV

  energy without entropy =      -22.50227593  energy(sigma->0) =      -22.50227593


--------------------------------------------------------------------------------------------------------




 average (electrostatic) potential at core
  the test charge radii are     0.8294  1.0025  0.6991
  (the norm of the test charge is              1.0000)
       1 -44.3669       2 -44.3669       3 -44.4046       4 -44.4046       5 -43.9641
       6 -44.5809       7 -72.5818       8 -52.1713
 
 
 
 E-fermi :   3.2299     XC(G=0):  -9.5481     alpha+bet : -8.7626

 val. band max:        3.3340920303   @ k =   0.5000   0.0000   0.2000
 cond. band min:       3.0902500414   @ k =   0.0000   0.0000   0.4000
 fundamental gap:     -0.2438419889
 Fermi energy:         3.2298807720

 spin component 1

 k-point     1 :       0.0000    0.0000    0.0000
  band No.  band energies     occupation 
      1     -40.7742      1.00000
      2     -40.7499      1.00000
      3     -40.7413      1.00000
      4     -39.5002      1.00000
      5     -39.4965      1.00000
      6     -39.4890      1.00000
      7     -39.3295      1.00000
      8     -39.3225      1.00000
      9     -39.3215      1.00000
     10     -39.3180      1.00000
     11     -39.3161      1.00000
     12     -39.3004      1.00000
     13     -39.2878      1.00000
     14     -39.2872      1.00000
     15     -39.2863      1.00000
     16     -39.2737      1.00000
     17     -39.2511      1.00000
     18     -39.2384      1.00000
     19     -38.8701      1.00000
     20     -38.8689      1.00000
     21     -38.8621      1.00000
     22      -6.1109      1.00000
     23      -2.6932      1.00000
     24       0.3767      1.00000
     25       0.4047      1.00000
     26       0.4722      1.00000
     27       0.5887      1.00000
     28       1.1046      1.00000
     29       1.2645      1.00000
     30       1.6759      1.00000
     31       1.7087      1.00000
     32       1.9343      1.00000
     33       2.3281      1.00000
     34       2.6246      1.10390
     35       3.4522      0.01059
     36       4.0868      0.00000
     37       5.5196      0.00000
     38       5.5401      0.00000
     39       5.9904      0.00000
     40       6.8087      0.00000
     41       7.1670      0.00000
     42       7.4170      0.00000
     43       8.2901      0.00000
     44       8.4720      0.00000
     45       8.7256      0.00000
     46       9.2142      0.00000
     47       9.3606      0.00000
     48       9.4364      0.00000

 k-point     2 :       0.2500    0.0000    0.0000
  band No.  band energies     occupation 
      1     -40.7742      1.00000
      2     -40.7499      1.00000
      3     -40.7412      1.00000
      4     -39.4997      1.00000
      5     -39.4962      1.00000
      6     -39.4889      1.00000
      7     -39.3277      1.00000
      8     -39.3230      1.00000
      9     -39.3200      1.00000
     10     -39.3180      1.00000
     11     -39.3161      1.00000
     12     -39.3034      1.00000
     13     -39.2879      1.00000
     14     -39.2860      1.00000
     15     -39.2848      1.00000
     16     -39.2752      1.00000
     17     -39.2498      1.00000
     18     -39.2408      1.00000
     19     -38.8702      1.00000
     20     -38.8689      1.00000
     21     -38.8622      1.00000
     22      -5.9997      1.00000
     23      -2.8013      1.00000
     24      -0.8322      1.00000
     25      -0.3325      1.00000
     26       0.8328      1.00000
     27       1.1573      1.00000
     28       1.2588      1.00000
     29       1.6445      1.00000
     30       1.7131      1.00000
     31       2.0324      1.00000
     32       2.0464      1.00000
     33       2.7099      1.00088
     34       3.4537      0.28600
     35       3.8802     -0.01274
     36       3.9065      0.00000
     37       4.9626      0.00000
     38       5.4976      0.00000
     39       5.7726      0.00000
     40       6.4738      0.00000
     41       6.5331      0.00000
     42       7.1595      0.00000
     43       8.2706      0.00000
     44       8.5502      0.00000
     45       8.9233      0.00000
     46       8.9900      0.00000
     47       9.3731      0.00000
     48      10.1288      0.00000

 k-point     3 :       0.5000    0.0000    0.0000
  band No.  band energies     occupation 
      1     -40.7742      1.00000
      2     -40.7498      1.00000
      3     -40.7411      1.00000
      4     -39.4993      1.00000
      5     -39.4958      1.00000
      6     -39.4889      1.00000
      7     -39.3260      1.00000
      8     -39.3237      1.00000
      9     -39.3180      1.00000
     10     -39.3166      1.00000
     11     -39.3162      1.00000
     12     -39.3082      1.00000
     13     -39.2879      1.00000
     14     -39.2859      1.00000
     15     -39.2798      1.00000
     16     -39.2794      1.00000
     17     -39.2460      1.00000
     18     -39.2456      1.00000
     19     -38.8704      1.00000
     20     -38.8689      1.00000
     21     -38.8624      1.00000
     22      -5.8738      1.00000
     23      -2.9298      1.00000
     24      -1.3988      1.00000
     25      -0.6392      1.00000
     26       1.0994      1.00000
     27       1.1357      1.00000
     28       1.4585      1.00000
     29       1.6167      1.00000
     30       1.6666      1.00000
     31       2.1351      1.00000
     32       2.4678      1.00000
     33       3.1545      0.99814
     34       3.4777      0.03596
     35       4.4547      0.00000
     36       4.6931      0.00000
     37       4.9295      0.00000
     38       5.3800      0.00000
     39       5.3821      0.00000
     40       5.9086      0.00000
     41       6.0930      0.00000
     42       7.0275      0.00000
     43       7.3680      0.00000
     44       8.0520      0.00000
     45       9.2091      0.00000
     46       9.6264      0.00000
     47       9.8772      0.00000
     48      10.9487      0.00000

 k-point     4 :       0.2500    0.2500    0.0000
  band No.  band energies     occupation 
      1     -40.7742      1.00000
      2     -40.7498      1.00000
      3     -40.7411      1.00000
      4     -39.4992      1.00000
      5     -39.4959      1.00000
      6     -39.4889      1.00000
      7     -39.3259      1.00000
      8     -39.3238      1.00000
      9     -39.3180      1.00000
     10     -39.3166      1.00000
     11     -39.3162      1.00000
     12     -39.3082      1.00000
     13     -39.2879      1.00000
     14     -39.2859      1.00000
     15     -39.2798      1.00000
     16     -39.2793      1.00000
     17     -39.2459      1.00000
     18     -39.2457      1.00000
     19     -38.8704      1.00000
     20     -38.8689      1.00000
     21     -38.8624      1.00000
     22      -5.8766      1.00000
     23      -2.7693      1.00000
     24      -1.9379      1.00000
     25       0.0672      1.00000
     26       1.1120      1.00000
     27       1.1335      1.00000
     28       1.1437      1.00000
     29       1.5503      1.00000
     30       1.5904      1.00000
     31       2.2801      1.00000
     32       2.4447      1.00000
     33       3.2527      0.99276
     34       3.6894     -0.15161
     35       4.1487      0.00000
     36       4.4320      0.00000
     37       4.7678      0.00000
     38       5.0211      0.00000
     39       5.2011      0.00000
     40       6.3443      0.00000
     41       6.8467      0.00000
     42       6.9855      0.00000
     43       7.6594      0.00000
     44       8.7398      0.00000
     45       9.0166      0.00000
     46       9.1387      0.00000
     47       9.7966      0.00000
     48      10.5320      0.00000

 k-point     5 :       0.5000    0.2500    0.0000
  band No.  band energies     occupation 
      1     -40.7742      1.00000
      2     -40.7498      1.00000
      3     -40.7410      1.00000
      4     -39.4988      1.00000
      5     -39.4959      1.00000
      6     -39.4889      1.00000
      7     -39.3286      1.00000
      8     -39.3231      1.00000
      9     -39.3196      1.00000
     10     -39.3181      1.00000
     11     -39.3162      1.00000
     12     -39.3034      1.00000
     13     -39.2878      1.00000
     14     -39.2860      1.00000
     15     -39.2849      1.00000
     16     -39.2752      1.00000
     17     -39.2501      1.00000
     18     -39.2408      1.00000
     19     -38.8704      1.00000
     20     -38.8689      1.00000
     21     -38.8626      1.00000
     22      -5.8805      1.00000
     23      -2.7633      1.00000
     24      -1.9139      1.00000
     25      -0.0378      1.00000
     26       1.0380      1.00000
     27       1.2474      1.00000
     28       1.4252      1.00000
     29       1.5480      1.00000
     30       1.7414      1.00000
     31       2.1738      1.00000
     32       2.4340      1.00000
     33       3.0324      1.00017
     34       3.2302      0.61804
     35       3.9229      0.00000
     36       4.4432      0.00000
     37       4.7834      0.00000
     38       5.0646      0.00000
     39       5.7608      0.00000
     40       6.8013      0.00000
     41       6.8483      0.00000
     42       6.9774      0.00000
     43       7.4494      0.00000
     44       8.8023      0.00000
     45       8.8290      0.00000
     46       9.2379      0.00000
     47       9.5733      0.00000
     48      10.0806      0.00000

 k-point     6 :      -0.2500    0.2500    0.0000
  band No.  band energies     occupation 
      1     -40.7742      1.00000
      2     -40.7498      1.00000
      3     -40.7411      1.00000
      4     -39.4993      1.00000
      5     -39.4962      1.00000
      6     -39.4889      1.00000
      7     -39.3302      1.00000
      8     -39.3226      1.00000
      9     -39.3213      1.00000
     10     -39.3181      1.00000
     11     -39.3161      1.00000
     12     -39.3003      1.00000
     13     -39.2877      1.00000
     14     -39.2872      1.00000
     15     -39.2861      1.00000
     16     -39.2737      1.00000
     17     -39.2514      1.00000
     18     -39.2384      1.00000
     19     -38.8702      1.00000
     20     -38.8689      1.00000
     21     -38.8624      1.00000
     22      -6.0030      1.00000
     23      -2.7926      1.00000
     24      -0.8651      1.00000
     25      -0.2532      1.00000
     26       0.8801      1.00000
     27       1.3007      1.00000
     28       1.3344      1.00000
     29       1.5072      1.00000
     30       1.6918      1.00000
     31       1.7107      1.00000
     32       2.2793      1.00000
     33       2.9057      1.00000
     34       2.9782      1.05740
     35       3.6689     -0.00509
     36       4.0074      0.00000
     37       5.0893      0.00000
     38       5.5540      0.00000
     39       5.8277      0.00000
     40       6.5131      0.00000
     41       6.6654      0.00000
     42       7.4889      0.00000
     43       7.9469      0.00000
     44       8.3266      0.00000
     45       8.7918      0.00000
     46       9.0495      0.00000
     47       9.4257      0.00000
[...]
     24      -1.0015      1.00000
     25      -0.5772      1.00000
     26      -0.0676      1.00000
     27       0.6755      1.00000
     28       2.0591      1.00000
     29       2.1769      1.00000
     30       3.0131      0.99860
     31       3.5909     -0.00012
     32       4.1966      0.00000
     33       4.5304      0.00000
     34       4.8114      0.00000
     35       4.9686      0.00000
     36       5.5594      0.00000
     37       5.8928      0.00000
     38       6.3416      0.00000
     39       6.7366      0.00000
     40       7.1910      0.00000
     41       7.4265      0.00000
     42       8.0129      0.00000
     43       8.5805      0.00000
     44       9.3631      0.00000
     45       9.6803      0.00000
     46      10.1420      0.00000
     47      10.4676      0.00000
     48      10.6234      0.00000

 k-point    20 :      -0.2500    0.2500    0.4000
  band No.  band energies     occupation 
      1     -39.4524      1.00000
      2     -39.4455      1.00000
      3     -39.4332      1.00000
      4     -39.2964      1.00000
      5     -39.2906      1.00000
      6     -39.2859      1.00000
      7     -39.2731      1.00000
      8     -39.2705      1.00000
      9     -39.2629      1.00000
     10     -39.2506      1.00000
     11     -39.2482      1.00000
     12     -39.2470      1.00000
     13     -39.2319      1.00000
     14     -39.2129      1.00000
     15     -39.2011      1.00000
     16     -38.8340      1.00000
     17     -38.8318      1.00000
     18     -38.8299      1.00000
     19     -37.1413      1.00000
     20     -37.1309      1.00000
     21     -37.0367      1.00000
     22      -5.7900      1.00000
     23      -2.2673      1.00000
     24      -0.8785      1.00000
     25       0.4138      1.00000
     26       0.7521      1.00000
     27       1.0418      1.00000
     28       1.7954      1.00000
     29       1.8818      1.00000
     30       2.3640      1.04430
     31       3.2503      0.14384
     32       3.7252     -0.00546
     33       4.1852      0.00000
     34       4.5922      0.00000
     35       4.8785      0.00000
     36       5.3522      0.00000
     37       5.9142      0.00000
     38       6.4151      0.00000
     39       6.5032      0.00000
     40       6.6063      0.00000
     41       7.0132      0.00000
     42       7.4114      0.00000
     43       8.2993      0.00000
     44       9.8631      0.00000
     45       9.9894      0.00000
     46      10.5010      0.00000
     47      11.7460      0.00000
     48      11.7539      0.00000

 k-point    21 :       0.5000    0.5000    0.4000
  band No.  band energies     occupation 
      1     -39.4513      1.00000
      2     -39.4450      1.00000
      3     -39.4332      1.00000
      4     -39.2978      1.00000
      5     -39.2911      1.00000
      6     -39.2856      1.00000
      7     -39.2731      1.00000
      8     -39.2703      1.00000
      9     -39.2628      1.00000
     10     -39.2504      1.00000
     11     -39.2481      1.00000
     12     -39.2471      1.00000
     13     -39.2320      1.00000
     14     -39.2127      1.00000
     15     -39.2010      1.00000
     16     -38.8341      1.00000
     17     -38.8318      1.00000
     18     -38.8303      1.00000
     19     -37.1416      1.00000
     20     -37.1309      1.00000
     21     -37.0368      1.00000
     22      -5.7324      1.00000
     23      -1.7460      1.00000
     24      -1.2888      1.00000
     25      -0.4311      1.00000
     26       0.4962      1.00000
     27       0.6161      1.00000
     28       1.5920      1.00000
     29       1.7553      1.00000
     30       3.4972      0.40175
     31       3.9135     -0.00023
     32       4.2659      0.00000
     33       4.7129      0.00000
     34       4.7211      0.00000
     35       5.0839      0.00000
     36       5.3178      0.00000
     37       5.4940      0.00000
     38       5.7861      0.00000
     39       6.5081      0.00000
     40       7.2827      0.00000
     41       8.2154      0.00000
     42       8.3452      0.00000
     43       8.7354      0.00000
     44       8.9235      0.00000
     45       8.9323      0.00000
     46      10.0388      0.00000
     47      10.7259      0.00000
     48      10.9233      0.00000


--------------------------------------------------------------------------------------------------------


 soft charge-density along one line, spin component            1
         0         1         2         3         4         5         6         7         8         9
 total charge-density along one line
 
 soft charge-density along one line, spin component            2
         0         1         2         3         4         5         6         7         8         9
 total charge-density along one line
 
 pseudopotential strength for first ion, spin component:            1
-50.178  -0.000   0.010   6.519   0.000  -0.006  -0.002   0.006
 -0.000 -50.185   0.000   0.000   6.520  -0.000   0.000  -0.000
  0.010   0.000 -50.173  -0.006  -0.000   6.517   0.001  -0.002
  6.519   0.000  -0.006   4.531  -0.000  -0.004  -0.000   0.001
  0.000   6.520  -0.000  -0.000   4.527   0.000   0.000  -0.000
 -0.006  -0.000   6.517  -0.004   0.000   4.530   0.000  -0.000
 -0.002   0.000   0.001  -0.000   0.000   0.000   2.992 -10.989
  0.006  -0.000  -0.002   0.001  -0.000  -0.000 -10.989  45.746
 -0.000   0.000   0.000   0.001  -0.000  -0.002  -0.004   0.009
 -0.000   0.001   0.000   0.000  -0.001  -0.000   0.000  -0.000
 -0.000  -0.000  -0.000   0.001   0.000  -0.000  -0.000   0.001
  0.000  -0.000  -0.000  -0.000  -0.000   0.000  -0.000   0.000
 -0.001  -0.000  -0.000  -0.000   0.000   0.000  -0.001   0.001
 pseudopotential strength for first ion, spin component:            2
-50.178  -0.000   0.010   6.520   0.000  -0.006  -0.002   0.006
 -0.000 -50.188   0.000   0.000   6.521  -0.000   0.000  -0.000
  0.010   0.000 -50.179  -0.006  -0.000   6.518   0.001  -0.002
  6.520   0.000  -0.006   4.531  -0.000  -0.004  -0.000   0.001
  0.000   6.521  -0.000  -0.000   4.524   0.000   0.000  -0.000
 -0.006  -0.000   6.518  -0.004   0.000   4.526  -0.000   0.000
 -0.002   0.000   0.001  -0.000   0.000  -0.000   2.992 -10.988
  0.006  -0.000  -0.002   0.001  -0.000   0.000 -10.988  45.745
 -0.000   0.000   0.000   0.000  -0.000  -0.002  -0.005   0.009
 -0.000   0.001   0.000   0.000  -0.000  -0.000   0.000  -0.000
 -0.000  -0.000   0.000   0.001   0.000  -0.000  -0.000   0.001
  0.000  -0.000  -0.000  -0.000  -0.001   0.000  -0.000   0.000
 -0.001  -0.000  -0.000  -0.000   0.000  -0.001  -0.002   0.003
 total augmentation occupancy for first ion, spin component:            1
  2.001   0.000  -0.000  -0.001   0.000  -0.001   0.000   0.000   0.000   0.000   0.001   0.000   0.001
  0.000   2.001   0.000   0.000   0.001   0.000   0.000   0.000   0.000  -0.001   0.000   0.000   0.000
 -0.000   0.000   2.001  -0.001   0.000  -0.001  -0.000  -0.000  -0.001   0.000  -0.000   0.000  -0.000
 -0.001   0.000  -0.001   0.059   0.000   0.014  -0.000   0.000  -0.002   0.000  -0.001   0.000   0.002
  0.000   0.001   0.000   0.000   0.068   0.000   0.000   0.000   0.000   0.000   0.000   0.001   0.000
 -0.001   0.000  -0.001   0.014   0.000   0.068   0.002   0.000   0.004   0.000   0.001   0.000   0.001
  0.000   0.000  -0.000  -0.000   0.000   0.002   1.197   0.009   0.025   0.000   0.016   0.000   0.010
  0.000   0.000  -0.000   0.000   0.000   0.000   0.009   0.000   0.000   0.000   0.000   0.000   0.000
  0.000   0.000  -0.001  -0.002   0.000   0.004   0.025   0.000   0.008   0.000   0.000   0.000   0.002
  0.000  -0.001   0.000   0.000   0.000   0.000   0.000   0.000   0.000   0.005   0.000   0.001   0.000
  0.001   0.000  -0.000  -0.001   0.000   0.001   0.016   0.000   0.000   0.000   0.008   0.000   0.000
  0.000   0.000   0.000   0.000   0.001   0.000   0.000   0.000   0.000   0.001   0.000   0.004   0.000
  0.001   0.000  -0.000   0.002   0.000   0.001   0.010   0.000   0.002   0.000   0.000   0.000   0.006
 total augmentation occupancy for first ion, spin component:            2
  0.000   0.000   0.000  -0.000   0.000  -0.000  -0.000   0.000  -0.000   0.000  -0.000   0.000  -0.000
  0.000  -0.000   0.000   0.000  -0.000   0.000   0.000   0.000   0.000   0.000   0.000  -0.000   0.000
  0.000   0.000  -0.000  -0.000   0.000   0.000   0.000  -0.000   0.000   0.000   0.000   0.000   0.000
 -0.000   0.000  -0.000   0.003   0.000  -0.001   0.002  -0.000  -0.000   0.000   0.000   0.000   0.000
  0.000  -0.000   0.000   0.000  -0.001   0.000   0.000   0.000   0.000   0.000   0.000  -0.000   0.000
 -0.000   0.000   0.000  -0.001   0.000  -0.004  -0.003  -0.000   0.000   0.000   0.000   0.000  -0.001
 -0.000   0.000   0.000   0.002   0.000  -0.003  -0.044  -0.000  -0.001   0.000  -0.001   0.000  -0.008
  0.000   0.000  -0.000  -0.000   0.000  -0.000  -0.000   0.000   0.000   0.000  -0.000   0.000  -0.000
 -0.000   0.000   0.000  -0.000   0.000   0.000  -0.001   0.000   0.001   0.000  -0.001   0.000  -0.001
  0.000   0.000   0.000   0.000   0.000   0.000   0.000   0.000   0.000   0.001   0.000   0.000   0.000
 -0.000   0.000   0.000   0.000   0.000   0.000  -0.001  -0.000  -0.001   0.000   0.001   0.000   0.000
  0.000  -0.000   0.000   0.000  -0.000   0.000   0.000   0.000   0.000   0.000   0.000   0.000   0.000
 -0.000   0.000   0.000   0.000   0.000  -0.001  -0.008  -0.000  -0.001   0.000   0.000   0.000   0.000


------------------------ aborting loop because EDIFF is reached ----------------------------------------





 total charge

# of ion       s       p       d       tot
------------------------------------------
    1        0.210   6.094   0.017   6.320
    2        0.210   6.094   0.017   6.320
    3        0.210   6.089   0.018   6.317
    4        0.210   6.089   0.018   6.317
    5        0.223   6.123   0.016   6.363
    6        0.207   6.091   0.019   6.317
    7        0.280   6.148   4.106  10.534
    8        0.962   1.092   0.000   2.054
--------------------------------------------------
tot          2.512  43.820   4.210  50.542



 magnetization (x)

# of ion       s       p       d       tot
------------------------------------------
    1       -0.008  -0.002   0.002  -0.008
    2       -0.008  -0.002   0.002  -0.008
    3       -0.003   0.007   0.002   0.006
    4       -0.003   0.007   0.002   0.006
    5       -0.006   0.003   0.003   0.000
    6        0.008   0.000  -0.000   0.009
    7        0.066   0.045   3.595   3.705
    8        0.007  -0.083   0.000  -0.076
--------------------------------------------------
tot          0.054  -0.025   3.604   3.633
 
    CHARGE:  cpu time      0.0526: real time      0.0524
    FORLOC:  cpu time      0.0005: real time      0.0005
    FORNL :  cpu time      0.2272: real time      0.2270
    STRESS:  cpu time      0.7026: real time      0.7020
    FORCOR:  cpu time      0.0058: real time      0.0058
    FORHAR:  cpu time      0.0011: real time      0.0011
    MIXING:  cpu time      0.0017: real time      0.0017
    OFIELD:  cpu time      0.0000: real time      0.0000

  FORCE on cell =-STRESS in cart. coord.  units (eV):
  Direction    XX          YY          ZZ          XY          YZ          ZX
  --------------------------------------------------------------------------------------
  Alpha Z   225.56113   225.56113   225.56113
  Ewald   -1466.03342 -1375.82954 -1276.27178    -0.00000    -0.00000     0.00000
  Hartree   633.83519   698.09245   761.78731    -0.00000     0.00000    -0.00000
  E(xc)    -354.60398  -354.54533  -354.46961    -0.00000     0.00000    -0.00000
  Local     359.93139   203.79461    44.25993     0.00000    -0.00000    -0.00000
  n-local  -407.56672  -406.67707  -406.14949     0.04936    -0.08213    -0.20978
  augment   246.62217   246.06389   245.94100    -0.00000     0.00000     0.00000
  Kinetic   762.43695   763.58015   759.43927     3.13342     0.50213     1.35083
  Fock        0.00000     0.00000     0.00000     0.00000     0.00000     0.00000
  -------------------------------------------------------------------------------------
  Total       0.18270     0.04029     0.09775     0.00000     0.00000     0.00000
  in kB       1.96347     0.43299     1.05054     0.00000     0.00000     0.00000
  external pressure =        1.15 kB  Pullay stress =        0.00 kB


 VOLUME and BASIS-vectors are now :
 -----------------------------------------------------------------------------
  energy-cutoff  :      520.00
  volume of cell :      149.08
      direct lattice vectors                 reciprocal lattice vectors
     3.084488813 -5.209340736  0.000000000     0.162101415 -0.095981435  0.000000000
     3.084488813  5.209340736  0.000000000     0.162101415  0.095981435 -0.000000000
     0.000000000  0.000000000  4.639140262    -0.000000000  0.000000000  0.215557182

  length of vectors
     6.054031891  6.054031891  4.639140262     0.188386052  0.188386052  0.215557182


 FORCES acting on ions
    electron-ion (+dipol)            ewald-force                    non-local-force                 convergence-correction
 -----------------------------------------------------------------------------------------------
   0.940E+00 0.201E+02 0.953E-06   -.108E+01 -.194E+02 0.184E-14   0.744E-01 -.565E+00 0.000E+00   -.344E-01 -.275E-03 0.597E-11
   -.940E+00 0.201E+02 -.953E-06   0.108E+01 -.194E+02 0.178E-14   -.744E-01 -.565E+00 0.000E+00   0.344E-01 -.275E-03 -.462E-12
   -.524E+02 -.294E+02 -.275E-05   0.504E+02 0.296E+02 0.554E-14   0.197E+01 -.180E+00 0.000E+00   0.478E-01 -.652E-01 0.836E-11
   0.524E+02 -.294E+02 0.275E-05   -.504E+02 0.296E+02 -.747E-14   -.197E+01 -.180E+00 0.000E+00   -.478E-01 -.652E-01 0.320E-12
   -.104E-11 0.616E+02 0.289E-10   -.118E-12 -.602E+02 0.574E-14   0.000E+00 -.141E+01 0.000E+00   0.184E-11 0.246E-03 -.132E-10
   -.278E-12 0.554E+01 0.234E-11   0.313E-13 -.567E+01 -.188E-14   0.000E+00 0.560E-01 0.000E+00   -.652E-12 0.477E-01 0.185E-11
   -.527E-11 -.289E+02 -.165E-10   -.143E-12 0.287E+02 -.473E-14   0.347E-17 0.316E+00 0.000E+00   0.417E-11 -.147E-01 -.197E-11
   0.421E-12 -.165E+02 0.990E-12   -.210E-13 0.167E+02 -.933E-15   0.243E-16 -.547E+00 0.000E+00   -.375E-12 0.183E-01 -.806E-12
 -----------------------------------------------------------------------------------------------
   0.550E-12 0.310E+01 -.350E-11   0.202E-13 0.355E-14 -.117E-15   0.250E-15 -.308E+01 0.000E+00   0.267E-11 -.793E-01 0.964E-13
 
 
 POSITION                                       TOTAL-FORCE (eV/Angst)
 -----------------------------------------------------------------------------------
      4.62234      0.90861      0.00000        -0.100892      0.107286      0.000000
      1.54664      0.90861      0.00000         0.100892      0.107286      0.000000
      4.68290     -0.93019      2.31957        -0.016725     -0.035248      0.000000
      1.48608     -0.93019      2.31957         0.016725     -0.035248      0.000000
      3.08449     -3.42365      2.31957         0.000000     -0.017286      0.000000
      3.08449      1.84876      2.31957         0.000000     -0.011631      0.000000
      3.08449     -1.72503      0.00000         0.000000      0.118540      0.000000
      3.08449      3.34303      0.00000         0.000000     -0.233701      0.000000
 -----------------------------------------------------------------------------------
    total drift:                                0.000000     -0.058662     -0.000000


--------------------------------------------------------------------------------------------------------



  FREE ENERGIE OF THE ION-ELECTRON SYSTEM (eV)
  ---------------------------------------------------
  free  energy   TOTEN  =       -22.51631819 eV

  energy  without entropy=      -22.51631819  energy(sigma->0) =      -22.51631819
 
 d Force = 0.9460186E-03[ 0.101E-02, 0.879E-03]  d Energy = 0.1142585E-02-0.197E-03
 d Force =-0.1022884E+00[-0.107E+00,-0.975E-01]  d Ewald  = 0.3146172E+01-0.325E+01


--------------------------------------------------------------------------------------------------------


    POTLOK:  cpu time      0.3957: real time      0.3954


--------------------------------------------------------------------------------------------------------




--------------------------------------------------------------------------------------------------------


  
 reached required accuracy - stopping structural energy minimisation
     LOOP+:  cpu time      5.9345: real time      5.9366
 -----------------------------------------------------------------------------
|                                                                             |
|           W    W    AA    RRRRR   N    N  II  N    N   GGGG   !!!           |
|           W    W   A  A   R    R  NN   N  II  NN   N  G    G  !!!           |
|           W    W  A    A  R    R  N N  N  II  N N  N  G       !!!           |
|           W WW W  AAAAAA  RRRRR   N  N N  II  N  N N  G  GGG   !            |
|           WW  WW  A    A  R   R   N   NN  II  N   NN  G    G                |
|           W    W  A    A  R    R  N    N  II  N    N   GGGG   !!!           |
|                                                                             |
|     Tetrahedron method does not include variations of the Fermi             |
|     occupations, so forces and stress will be inaccurate. We suggest        |
|     using a different smearing scheme ISMEAR = 1 or 2 for metals in         |
|     relaxations.                                                            |
|                                                                             |
 -----------------------------------------------------------------------------

    4ORBIT:  cpu time      0.0000: real time      0.0000



 total charge

# of ion       s       p       d       tot
------------------------------------------
    1        0.210   6.094   0.017   6.320
    2        0.210   6.094   0.017   6.320
    3        0.210   6.089   0.018   6.317
    4        0.210   6.089   0.018   6.317
    5        0.223   6.123   0.016   6.363
    6        0.207   6.091   0.019   6.317
    7        0.280   6.148   4.106  10.534
    8        0.962   1.092   0.000   2.054
--------------------------------------------------
tot          2.512  43.820   4.210  50.542



 magnetization (x)

# of ion       s       p       d       tot
------------------------------------------
    1       -0.008  -0.002   0.002  -0.008
    2       -0.008  -0.002   0.002  -0.008
    3       -0.003   0.007   0.002   0.006
    4       -0.003   0.007   0.002   0.006
    5       -0.006   0.003   0.003   0.000
    6        0.008   0.000  -0.000   0.009
    7        0.066   0.045   3.595   3.705
    8        0.007  -0.083   0.000  -0.076
--------------------------------------------------
tot          0.054  -0.025   3.604   3.633
 
 BZINTS: Fermi energy:    3.250908;   64.000000 electrons
         Band energy:-0.163958E+04;  BLOECHL correction:   -0.075994

 total amount of memory used by VASP MPI-rank0    69501. kBytes
=======================================================================

   base      :      30000. kBytes
   nonlr-proj:       5003. kBytes
   fftplans  :       3207. kBytes
   grid      :      14174. kBytes
   one-center:        248. kBytes
   wavefun   :      16869. kBytes
 
  
  
 General timing and accounting informations for this job:
 ========================================================
  
                  Total CPU time used (sec):       59.174
                            User time (sec):       48.901
                          System time (sec):       10.273
                         Elapsed time (sec):       67.175
  
                   Maximum memory used (kb):     1350116.
                   Average memory used (kb):          N/A
  
                          Minor page faults:       412887
                          Major page faults:         4333
                 Voluntary context switches:       116067
