PROCAR lm decomposed
# of k-points:   21         # of bands:   48         # of ions:    8

 k-point     1 :    0.00000000 0.00000000 0.00000000     weight = 0.01250000

band     1 # energy  -40.74785327 # occ.  1.00000000
 
ion      s     py     pz     px    dxy    dyz    dz2    dxz  x2-y2    tot
    1  0.000  0.000  0.000  0.000  0.000  0.000  0.000  0.000  0.000  0.000
    2  0.000  0.000  0.000  0.000  0.000  0.000  0.000  0.000  0.000  0.000
    3  0.000  0.000  0.000  0.000  0.000  0.000  0.000  0.000  0.000  0.000
    4  0.000  0.000  0.000  0.000  0.000  0.000  0.000  0.000  0.000  0.000
    5  0.000  0.000  0.000  0.000  0.000  0.000  0.000  0.000  0.000  0.000
    6  0.000  0.000  0.000  0.000  0.000  0.000  0.000  0.000  0.000  0.000
    7  0.000  0.000  0.994  0.000  0.000  0.000  0.000  0.000  0.000  0.994
    8  0.000  0.000  0.000  0.000  0.000  0.000  0.000  0.000  0.000  0.000
tot    0.000  0.000  0.994  0.000  0.000  0.000  0.000  0.000  0.000  0.994
 
band     2 # energy  -40.72711406 # occ.  1.00000000
 
ion      s     py     pz     px    dxy    dyz    dz2    dxz  x2-y2    tot
    1  0.000  0.000  0.000  0.000  0.000  0.000  0.000  0.000  0.000  0.000
    2  0.000  0.000  0.000  0.000  0.000  0.000  0.000  0.000  0.000  0.000
    3  0.000  0.000  0.000  0.000  0.000  0.000  0.000  0.000  0.000  0.000
    4  0.000  0.000  0.000  0.000  0.000  0.000  0.000  0.000  0.000  0.000
    5  0.000  0.000  0.000  0.000  0.000  0.000  0.000  0.000  0.000  0.000
    6  0.000  0.000  0.000  0.000  0.000  0.000  0.000  0.000  0.000  0.000
    7  0.000  0.000  0.000  0.994  0.000  0.000  0.000  0.000  0.000  0.994
    8  0.000  0.000  0.000  0.000  0.000  0.000  0.000  0.000  0.000  0.000
tot    0.000  0.000  0.000  0.994  0.000  0.000  0.000  0.000  0.000  0.994
 
band     3 # energy  -40.71993023 # occ.  1.00000000
 
ion      s     py     pz     px    dxy    dyz    dz2    dxz  x2-y2    tot
    1  0.000  0.000  0.000  0.000  0.000  0.000  0.000  0.000  0.000  0.000
    2  0.000  0.000  0.000  0.000  0.000  0.000  0.000  0.000  0.000  0.000
    3  0.000  0.000  0.000  0.000  0.000  0.000  0.000  0.000  0.000  0.000
    4  0.000  0.000  0.000  0.000  0.000  0.000  0.000  0.000  0.000  0.000
    5  0.000  0.000  0.000  0.000  0.000  0.000  0.000  0.000  0.000  0.000
    6  0.000  0.000  0.000  0.000  0.000  0.000  0.000  0.000  0.000  0.000
    7  0.000  0.994  0.000  0.000  0.000  0.000  0.000  0.000  0.000  0.994
    8  0.000  0.000  0.000  0.000  0.000  0.000  0.000  0.000  0.000  0.000
tot    0.000  0.994  0.000  0.000  0.000  0.000  0.000  0.000  0.000  0.994
 
band     4 # energy  -39.45722469 # occ.  1.00000000
 
ion      s     py     pz     px    dxy    dyz    dz2    dxz  x2-y2    tot
    1  0.000  0.000  0.000  0.000  0.000  0.000  0.000  0.000  0.000  0.000
    2  0.000  0.000  0.000  0.000  0.000  0.000  0.000  0.000  0.000  0.000
    3  0.000  0.006  0.000  0.003  0.000  0.000  0.000  0.000  0.000  0.009
    4  0.000  0.006  0.000  0.003  0.000  0.000  0.000  0.000  0.000  0.009
    5  0.000  0.000  0.000  0.000  0.000  0.000  0.000  0.000  0.000  0.000
    6  0.000  0.975  0.000  0.000  0.000  0.000  0.000  0.000  0.000  0.975
    7  0.000  0.000  0.000  0.000  0.000  0.000  0.000  0.000  0.000  0.000
    8  0.000  0.000  0.000  0.000  0.000  0.000  0.000  0.000  0.000  0.000
tot    0.000  0.987  0.000  0.007  0.000  0.000  0.000  0.000  0.000  0.994
 
band     5 # energy  -39.45123642 # occ.  1.00000000
 
ion      s     py     pz     px    dxy    dyz    dz2    dxz  x2-y2    tot
    1  0.000  0.000  0.000  0.000  0.000  0.000  0.000  0.000  0.000  0.001
    2  0.000  0.000  0.000  0.000  0.000  0.000  0.000  0.000  0.000  0.001
    3  0.000  0.003  0.000  0.000  0.000  0.000  0.000  0.000  0.000  0.003
    4  0.000  0.003  0.000  0.000  0.000  0.000  0.000  0.000  0.000  0.003
    5  0.000  0.000  0.000  0.000  0.000  0.000  0.000  0.000  0.000  0.000
    6  0.000  0.000  0.000  0.985  0.000  0.000  0.000  0.000  0.000  0.985
    7  0.000  0.000  0.000  0.000  0.000  0.000  0.000  0.000  0.000  0.000
    8  0.000  0.000  0.000  0.000  0.000  0.000  0.000  0.000  0.000  0.000
tot    0.000  0.007  0.000  0.987  0.000  0.000  0.000  0.000  0.000  0.994
 
band     6 # energy  -39.43927310 # occ.  1.00000000
 
ion      s     py     pz     px    dxy    dyz    dz2    dxz  x2-y2    tot
    1  0.000  0.000  0.004  0.000  0.000  0.000  0.000  0.000  0.000  0.004
    2  0.000  0.000  0.004  0.000  0.000  0.000  0.000  0.000  0.000  0.004
    3  0.000  0.000  0.000  0.000  0.000  0.000  0.000  0.000  0.000  0.000
    4  0.000  0.000  0.000  0.000  0.000  0.000  0.000  0.000  0.000  0.000
    5  0.000  0.000  0.000  0.000  0.000  0.000  0.000  0.000  0.000  0.000
    6  0.000  0.000  0.985  0.000  0.000  0.000  0.000  0.000  0.000  0.985
    7  0.000  0.000  0.000  0.000  0.000  0.000  0.000  0.000  0.000  0.000
    8  0.000  0.000  0.000  0.000  0.000  0.000  0.000  0.000  0.000  0.000
tot    0.000  0.000  0.994  0.000  0.000  0.000  0.000  0.000  0.000  0.994
 
band     7 # energy  -39.29509969 # occ.  1.00000000
 
ion      s     py     pz     px    dxy    dyz    dz2    dxz  x2-y2    tot
    1  0.000  0.001  0.000  0.000  0.000  0.000  0.000  0.000  0.000  0.001
    2  0.000  0.001  0.000  0.000  0.000  0.000  0.000  0.000  0.000  0.001
    3  0.000  0.134  0.000  0.354  0.000  0.000  0.000  0.000  0.000  0.488
    4  0.000  0.134  0.000  0.354  0.000  0.000  0.000  0.000  0.000  0.488
    5  0.000  0.000  0.000  0.000  0.000  0.000  0.000  0.000  0.000  0.000
    6  0.000  0.016  0.000  0.000  0.000  0.000  0.000  0.000  0.000  0.016
    7  0.000  0.000  0.000  0.000  0.000  0.000  0.000  0.000  0.000  0.000
    8  0.000  0.000  0.000  0.000  0.000  0.000  0.000  0.000  0.000  0.000
tot    0.000  0.286  0.000  0.707  0.000  0.000  0.000  0.000  0.000  0.994
 
band     8 # energy  -39.28876486 # occ.  1.00000000
 
ion      s     py     pz     px    dxy    dyz    dz2    dxz  x2-y2    tot
    1  0.000  0.004  0.000  0.000  0.000  0.000  0.000  0.000  0.000  0.005
    2  0.000  0.004  0.000  0.000  0.000  0.000  0.000  0.000  0.000  0.005
    3  0.000  0.466  0.000  0.023  0.000  0.000  0.000  0.000  0.000  0.489
    4  0.000  0.466  0.000  0.023  0.000  0.000  0.000  0.000  0.000  0.489
    5  0.000  0.000  0.000  0.000  0.000  0.000  0.000  0.000  0.000  0.000
    6  0.000  0.000  0.000  0.006  0.000  0.000  0.000  0.000  0.000  0.006
    7  0.000  0.000  0.000  0.000  0.000  0.000  0.000  0.000  0.000  0.000
    8  0.000  0.000  0.000  0.000  0.000  0.000  0.000  0.000  0.000  0.000
tot    0.000  0.940  0.000  0.054  0.000  0.000  0.000  0.000  0.000  0.994
 
band     9 # energy  -39.28742267 # occ.  1.00000000
 
ion      s     py     pz     px    dxy    dyz    dz2    dxz  x2-y2    tot
    1  0.000  0.004  0.000  0.002  0.000  0.000  0.000  0.000  0.000  0.006
    2  0.000  0.004  0.000  0.002  0.000  0.000  0.000  0.000  0.000  0.006
    3  0.000  0.350  0.000  0.139  0.000  0.000  0.000  0.000  0.000  0.489
    4  0.000  0.350  0.000  0.139  0.000  0.000  0.000  0.000  0.000  0.489
    5  0.000  0.002  0.000  0.000  0.000  0.000  0.000  0.000  0.000  0.002
    6  0.000  0.003  0.000  0.000  0.000  0.000  0.000  0.000  0.000  0.003
    7  0.000  0.000  0.000  0.000  0.000  0.000  0.000  0.000  0.000  0.000
    8  0.000  0.000  0.000  0.000  0.000  0.000  0.000  0.000  0.000  0.000
tot    0.000  0.712  0.000  0.281  0.000  0.000  0.000  0.000  0.000  0.994
 
band    10 # energy  -39.28143169 # occ.  1.00000000
 
ion      s     py     pz     px    dxy    dyz    dz2    dxz  x2-y2    tot
    1  0.000  0.000  0.044  0.000  0.000  0.000  0.000  0.000  0.000  0.044
    2  0.000  0.000  0.044  0.000  0.000  0.000  0.000  0.000  0.000  0.044
    3  0.000  0.000  0.451  0.000  0.000  0.000  0.000  0.000  0.000  0.451
    4  0.000  0.000  0.451  0.000  0.000  0.000  0.000  0.000  0.000  0.451
    5  0.000  0.000  0.000  0.000  0.000  0.000  0.000  0.000  0.000  0.000
    6  0.000  0.000  0.002  0.000  0.000  0.000  0.000  0.000  0.000  0.002
    7  0.000  0.000  0.000  0.000  0.000  0.000  0.000  0.000  0.000  0.000
    8  0.000  0.000  0.000  0.000  0.000  0.000  0.000  0.000  0.000  0.000
tot    0.000  0.000  0.994  0.000  0.000  0.000  0.000  0.000  0.000  0.994
 
band    11 # energy  -39.27958404 # occ.  1.00000000
 
ion      s     py     pz     px    dxy    dyz    dz2    dxz  x2-y2    tot
    1  0.000  0.000  0.045  0.000  0.000  0.000  0.000  0.000  0.000  0.045
    2  0.000  0.000  0.045  0.000  0.000  0.000  0.000  0.000  0.000  0.045
    3  0.000  0.000  0.452  0.000  0.000  0.000  0.000  0.000  0.000  0.452
    4  0.000  0.000  0.452  0.000  0.000  0.000  0.000  0.000  0.000  0.452
    5  0.000  0.000  0.000  0.000  0.000  0.000  0.000  0.000  0.000  0.000
    6  0.000  0.000  0.000  0.000  0.000  0.000  0.000  0.000  0.000  0.000
    7  0.000  0.000  0.000  0.000  0.000  0.000  0.000  0.000  0.000  0.000
    8  0.000  0.000  0.000  0.000  0.000  0.000  0.000  0.000  0.000  0.000
tot    0.000  0.000  0.994  0.000  0.000  0.000  0.000  0.000  0.000  0.994
 
band    12 # energy  -39.26563056 # occ.  1.00000000
 
ion      s     py     pz     px    dxy    dyz    dz2    dxz  x2-y2    tot
    1  0.000  0.000  0.000  0.001  0.000  0.000  0.000  0.000  0.000  0.001
    2  0.000  0.000  0.000  0.001  0.000  0.000  0.000  0.000  0.000  0.001
    3  0.000  0.023  0.000  0.473  0.000  0.000  0.000  0.000  0.000  0.496
    4  0.000  0.023  0.000  0.473  0.000  0.000  0.000  0.000  0.000  0.496
    5  0.000  0.000  0.000  0.000  0.000  0.000  0.000  0.000  0.000  0.000
    6  0.000  0.000  0.000  0.000  0.000  0.000  0.000  0.000  0.000  0.000
    7  0.000  0.000  0.000  0.000  0.000  0.000  0.000  0.000  0.000  0.000
    8  0.000  0.000  0.000  0.000  0.000  0.000  0.000  0.000  0.000  0.000
tot    0.000  0.047  0.000  0.948  0.000  0.000  0.000  0.000  0.000  0.995
 
band    13 # energy  -39.24349241 # occ.  1.00000000
 
ion      s     py     pz     px    dxy    dyz    dz2    dxz  x2-y2    tot
    1  0.000  0.000  0.448  0.000  0.000  0.000  0.000  0.000  0.000  0.448
    2  0.000  0.000  0.448  0.000  0.000  0.000  0.000  0.000  0.000  0.448
    3  0.000  0.000  0.045  0.000  0.000  0.000  0.000  0.000  0.000  0.045
    4  0.000  0.000  0.045  0.000  0.000  0.000  0.000  0.000  0.000  0.045
    5  0.000  0.000  0.002  0.000  0.000  0.000  0.000  0.000  0.000  0.002
    6  0.000  0.000  0.006  0.000  0.000  0.000  0.000  0.000  0.000  0.006
    7  0.000  0.000  0.000  0.000  0.000  0.000  0.000  0.000  0.000  0.000
    8  0.000  0.000  0.000  0.000  0.000  0.000  0.000  0.000  0.000  0.000
tot    0.000  0.000  0.994  0.000  0.000  0.000  0.000  0.000  0.000  0.994
 
band    14 # energy  -39.24194445 # occ.  1.00000000
 
ion      s     py     pz     px    dxy    dyz    dz2    dxz  x2-y2    tot
    1  0.000  0.000  0.452  0.000  0.000  0.000  0.000  0.000  0.000  0.452
    2  0.000  0.000  0.452  0.000  0.000  0.000  0.000  0.000  0.000  0.452
    3  0.000  0.000  0.045  0.000  0.000  0.000  0.000  0.000  0.000  0.045
    4  0.000  0.000  0.045  0.000  0.000  0.000  0.000  0.000  0.000  0.045
    5  0.000  0.000  0.000  0.000  0.000  0.000  0.000  0.000  0.000  0.000
    6  0.000  0.000  0.000  0.000  0.000  0.000  0.000  0.000  0.000  0.000
    7  0.000  0.000  0.000  0.000  0.000  0.000  0.000  0.000  0.000  0.000
    8  0.000  0.000  0.000  0.000  0.000  0.000  0.000  0.000  0.000  0.000
tot    0.000  0.000  0.994  0.000  0.000  0.000  0.000  0.000  0.000  0.994
 
band    15 # energy  -39.24150259 # occ.  1.00000000
 
ion      s     py     pz     px    dxy    dyz    dz2    dxz  x2-y2    tot
    1  0.000  0.174  0.000  0.317  0.000  0.000  0.000  0.000  0.000  0.491
    2  0.000  0.174  0.000  0.317  0.000  0.000  0.000  0.000  0.000  0.491
    3  0.000  0.005  0.000  0.001  0.000  0.000  0.000  0.000  0.000  0.006
    4  0.000  0.005  0.000  0.001  0.000  0.000  0.000  0.000  0.000  0.006
    5  0.000  0.000  0.000  0.000  0.000  0.000  0.000  0.000  0.000  0.000
    6  0.000  0.001  0.000  0.000  0.000  0.000  0.000  0.000  0.000  0.001
    7  0.000  0.000  0.000  0.000  0.000  0.000  0.000  0.000  0.000  0.000
    8  0.000  0.000  0.000  0.000  0.000  0.000  0.000  0.000  0.000  0.000
tot    0.000  0.358  0.000  0.635  0.000  0.000  0.000  0.000  0.000  0.994
 
band    16 # energy  -39.22853965 # occ.  1.00000000
 
ion      s     py     pz     px    dxy    dyz    dz2    dxz  x2-y2    tot
    1  0.000  0.336  0.000  0.155  0.000  0.000  0.000  0.000  0.000  0.492
    2  0.000  0.336  0.000  0.155  0.000  0.000  0.000  0.000  0.000  0.492
    3  0.000  0.004  0.000  0.000  0.000  0.000  0.000  0.000  0.000  0.005
    4  0.000  0.004  0.000  0.000  0.000  0.000  0.000  0.000  0.000  0.005
    5  0.000  0.000  0.000  0.000  0.000  0.000  0.000  0.000  0.000  0.000
    6  0.000  0.000  0.000  0.002  0.000  0.000  0.000  0.000  0.000  0.002
    7  0.000  0.000  0.000  0.000  0.000  0.000  0.000  0.000  0.000  0.000
    8  0.000  0.000  0.000  0.000  0.000  0.000  0.000  0.000  0.000  0.000
tot    0.000  0.681  0.000  0.313  0.000  0.000  0.000  0.000  0.000  0.994
 
band    17 # energy  -39.20734521 # occ.  1.00000000
 
ion      s     py     pz     px    dxy    dyz    dz2    dxz  x2-y2    tot
    1  0.000  0.318  0.000  0.177  0.000  0.000  0.000  0.000  0.000  0.495
    2  0.000  0.318  0.000  0.177  0.000  0.000  0.000  0.000  0.000  0.495
    3  0.000  0.002  0.000  0.000  0.000  0.000  0.000  0.000  0.000  0.002
    4  0.000  0.002  0.000  0.000  0.000  0.000  0.000  0.000  0.000  0.002
    5  0.000  0.000  0.000  0.000  0.000  0.000  0.000  0.000  0.000  0.000
    6  0.000  0.000  0.000  0.000  0.000  0.000  0.000  0.000  0.000  0.000
    7  0.000  0.000  0.000  0.000  0.000  0.000  0.000  0.000  0.000  0.000
    8  0.000  0.000  0.000  0.000  0.000  0.000  0.000  0.000  0.000  0.000
tot    0.000  0.639  0.000  0.355  0.000  0.000  0.000  0.000  0.000  0.994
 
band    18 # energy  -39.19385669 # occ.  1.00000000
 
ion      s     py     pz     px    dxy    dyz    dz2    dxz  x2-y2    tot
    1  0.000  0.156  0.000  0.341  0.000  0.000  0.000  0.000  0.000  0.496
    2  0.000  0.156  0.000  0.341  0.000  0.000  0.000  0.000  0.000  0.496
    3  0.000  0.000  0.000  0.000  0.000  0.000  0.000  0.000  0.000  0.001
    4  0.000  0.000  0.000  0.000  0.000  0.000  0.000  0.000  0.000  0.001
    5  0.000  0.000  0.000  0.001  0.000  0.000  0.000  0.000  0.000  0.001
    6  0.000  0.000  0.000  0.000  0.000  0.000  0.000  0.000  0.000  0.000
    7  0.000  0.000  0.000  0.000  0.000  0.000  0.000  0.000  0.000  0.000
    8  0.000  0.000  0.000  0.000  0.000  0.000  0.000  0.000  0.000  0.000
tot    0.000  0.312  0.000  0.682  0.000  0.000  0.000  0.000  0.000  0.994
 
band    19 # energy  -38.83427181 # occ.  1.00000000
 
ion      s     py     pz     px    dxy    dyz    dz2    dxz  x2-y2    tot
    1  0.000  0.000  0.000  0.000  0.000  0.000  0.000  0.000  0.000  0.000
    2  0.000  0.000  0.000  0.000  0.000  0.000  0.000  0.000  0.000  0.000
    3  0.000  0.000  0.000  0.000  0.000  0.000  0.000  0.000  0.000  0.000
    4  0.000  0.000  0.000  0.000  0.000  0.000  0.000  0.000  0.000  0.000
    5  0.000  0.000  0.000  0.992  0.000  0.000  0.000  0.000  0.000  0.992
    6  0.000  0.000  0.000  0.000  0.000  0.000  0.000  0.000  0.000  0.000
    7  0.000  0.000  0.000  0.000  0.000  0.000  0.000  0.000  0.000  0.000
    8  0.000  0.000  0.000  0.000  0.000  0.000  0.000  0.000  0.000  0.000
tot    0.000  0.001  0.000  0.993  0.000  0.000  0.000  0.000  0.000  0.994
 
band    20 # energy  -38.83167999 # occ.  1.00000000
 
ion      s     py     pz     px    dxy    dyz    dz2    dxz  x2-y2    tot
    1  0.000  0.000  0.001  0.000  0.000  0.000  0.000  0.000  0.000  0.001
    2  0.000  0.000  0.001  0.000  0.000  0.000  0.000  0.000  0.000  0.001
    3  0.000  0.000  0.000  0.000  0.000  0.000  0.000  0.000  0.000  0.000
    4  0.000  0.000  0.000  0.000  0.000  0.000  0.000  0.000  0.000  0.000
    5  0.000  0.000  0.992  0.000  0.000  0.000  0.000  0.000  0.000  0.992
    6  0.000  0.000  0.000  0.000  0.000  0.000  0.000  0.000  0.000  0.000
    7  0.000  0.000  0.000  0.000  0.000  0.000  0.000  0.000  0.000  0.000
    8  0.000  0.000  0.000  0.000  0.000  0.000  0.000  0.000  0.000  0.000
tot    0.000  0.000  0.994  0.000  0.000  0.000  0.000  0.000  0.000  0.994
 
band    21 # energy  -38.82713631 # occ.  1.00000000
 
ion      s     py     pz     px    dxy    dyz    dz2    dxz  x2-y2    tot
    1  0.000  0.000  0.000  0.000  0.000  0.000  0.000  0.000  0.000  0.000
    2  0.000  0.000  0.000  0.000  0.000  0.000  0.000  0.000  0.000  0.000
    3  0.000  0.001  0.000  0.000  0.000  0.000  0.000  0.000  0.000  0.001
    4  0.000  0.001  0.000  0.000  0.000  0.000  0.000  0.000  0.000  0.001
    5  0.000  0.992  0.000  0.000  0.000  0.000  0.000  0.000  0.000  0.992
    6  0.000  0.000  0.000  0.000  0.000  0.000  0.000  0.000  0.000  0.000
    7  0.000  0.000  0.000  0.000  0.000  0.000  0.000  0.000  0.000  0.000
    8  0.000  0.000  0.000  0.000  0.000  0.000  0.000  0.000  0.000  0.000
tot    0.000  0.993  0.000  0.001  0.000  0.000  0.000  0.000  0.000  0.994
 
band    22 # energy   -6.10725345 # occ.  1.00000000
 
ion      s     py     pz     px    dxy    dyz    dz2    dxz  x2-y2    tot
    1  0.007  0.000  0.000  0.000  0.000  0.000  0.000  0.000  0.000  0.007
    2  0.007  0.000  0.000  0.000  0.000  0.000  0.000  0.000  0.000  0.007
    3  0.009  0.000  0.000  0.000  0.000  0.000  0.000  0.000  0.000  0.009
    4  0.009  0.000  0.000  0.000  0.000  0.000  0.000  0.000  0.000  0.009
    5  0.004  0.000  0.000  0.000  0.000  0.000  0.000  0.000  0.000  0.004
    6  0.012  0.001  0.000  0.000  0.000  0.000  0.000  0.000  0.000  0.013
    7  0.011  0.000  0.000  0.000  0.000  0.000  0.000  0.000  0.001  0.013
    8  0.318  0.000  0.000  0.000  0.000  0.000  0.000  0.000  0.000  0.318
tot    0.377  0.001  0.000  0.001  0.000  0.000  0.000  0.000  0.001  0.381
 
band    23 # energy   -2.67338260 # occ.  1.00000000
 
ion      s     py     pz     px    dxy    dyz    dz2    dxz  x2-y2    tot
    1  0.021  0.000  0.000  0.000  0.000  0.000  0.000  0.000  0.000  0.022
    2  0.021  0.000  0.000  0.000  0.000  0.000  0.000  0.000  0.000  0.022
    3  0.016  0.000  0.000  0.001  0.000  0.000  0.000  0.000  0.000  0.019
    4  0.016  0.000  0.000  0.001  0.000  0.000  0.000  0.000  0.000  0.019
    5  0.043  0.000  0.000  0.000  0.000  0.000  0.000  0.000  0.000  0.043
    6  0.012  0.002  0.000  0.000  0.000  0.000  0.000  0.000  0.000  0.014
    7  0.042  0.000  0.000  0.000  0.000  0.000  0.005  0.000  0.010  0.057
    8  0.130  0.000  0.000  0.000  0.000  0.000  0.000  0.000  0.000  0.130
tot    0.303  0.003  0.000  0.003  0.001  0.000  0.006  0.000  0.011  0.327
 
band    24 # energy    0.35301665 # occ.  1.00000000
 
ion      s     py     pz     px    dxy    dyz    dz2    dxz  x2-y2    tot
    1  0.024  0.003  0.000  0.000  0.000  0.000  0.000  0.000  0.000  0.027
    2  0.024  0.003  0.000  0.000  0.000  0.000  0.000  0.000  0.000  0.027
    3  0.002  0.007  0.000  0.000  0.000  0.000  0.000  0.000  0.000  0.009
    4  0.002  0.007  0.000  0.000  0.000  0.000  0.000  0.000  0.000  0.009
    5  0.000  0.000  0.000  0.019  0.000  0.000  0.000  0.000  0.000  0.019
    6  0.000  0.000  0.000  0.020  0.000  0.000  0.000  0.000  0.000  0.020
    7  0.000  0.000  0.000  0.016  0.111  0.000  0.000  0.000  0.000  0.127
    8  0.000  0.000  0.000  0.055  0.000  0.000  0.000  0.000  0.000  0.055
tot    0.051  0.020  0.000  0.111  0.111  0.000  0.001  0.000  0.001  0.294
 
band    25 # energy    0.41571344 # occ.  1.00000000
 
ion      s     py     pz     px    dxy    dyz    dz2    dxz  x2-y2    tot
    1  0.005  0.006  0.000  0.009  0.000  0.000  0.000  0.000  0.000  0.020
    2  0.005  0.006  0.000  0.009  0.000  0.000  0.000  0.000  0.000  0.020
    3  0.014  0.000  0.000  0.001  0.001  0.000  0.000  0.000  0.001  0.016
    4  0.014  0.000  0.000  0.001  0.001  0.000  0.000  0.000  0.001  0.016
    5  0.001  0.000  0.000  0.000  0.000  0.000  0.000  0.000  0.001  0.003
    6  0.040  0.001  0.000  0.000  0.000  0.000  0.002  0.000  0.000  0.043
    7  0.005  0.001  0.000  0.000  0.000  0.000  0.025  0.000  0.016  0.046
    8  0.000  0.120  0.000  0.000  0.000  0.000  0.000  0.000  0.000  0.120
tot    0.084  0.134  0.000  0.019  0.001  0.000  0.027  0.000  0.019  0.284
 
band    26 # energy    0.51520221 # occ.  1.00000000
 
ion      s     py     pz     px    dxy    dyz    dz2    dxz  x2-y2    tot
    1  0.015  0.001  0.000  0.001  0.000  0.000  0.000  0.000  0.000  0.018
    2  0.015  0.001  0.000  0.001  0.000  0.000  0.000  0.000  0.000  0.018
    3  0.002  0.009  0.000  0.007  0.000  0.000  0.000  0.000  0.000  0.018
    4  0.002  0.009  0.000  0.007  0.000  0.000  0.000  0.000  0.000  0.018
    5  0.000  0.021  0.000  0.000  0.000  0.000  0.000  0.000  0.000  0.022
    6  0.000  0.002  0.000  0.000  0.000  0.000  0.000  0.000  0.000  0.002
    7  0.028  0.000  0.000  0.000  0.000  0.000  0.267  0.000  0.025  0.320
    8  0.000  0.011  0.000  0.000  0.000  0.000  0.000  0.000  0.000  0.011
tot    0.063  0.054  0.000  0.017  0.000  0.000  0.268  0.000  0.026  0.428
 
band    27 # energy    0.65636408 # occ.  1.00000000
 
ion      s     py     pz     px    dxy    dyz    dz2    dxz  x2-y2    tot
    1  0.018  0.005  0.000  0.000  0.000  0.000  0.000  0.000  0.000  0.023
    2  0.018  0.005  0.000  0.000  0.000  0.000  0.000  0.000  0.000  0.023
    3  0.039  0.000  0.000  0.000  0.000  0.000  0.001  0.000  0.000  0.041
    4  0.039  0.000  0.000  0.000  0.000  0.000  0.001  0.000  0.000  0.041
    5  0.000  0.000  0.000  0.001  0.002  0.000  0.000  0.000  0.000  0.002
    6  0.000  0.000  0.000  0.000  0.002  0.000  0.000  0.000  0.000  0.002
    7  0.000  0.000  0.000  0.025  0.138  0.000  0.000  0.000  0.000  0.163
    8  0.000  0.000  0.000  0.062  0.000  0.000  0.000  0.000  0.000  0.062
tot    0.114  0.010  0.000  0.088  0.142  0.000  0.003  0.000  0.002  0.357
 
band    28 # energy    1.14147426 # occ.  1.00000000
 
ion      s     py     pz     px    dxy    dyz    dz2    dxz  x2-y2    tot
    1  0.000  0.009  0.000  0.016  0.000  0.000  0.000  0.000  0.000  0.025
    2  0.000  0.009  0.000  0.016  0.000  0.000  0.000  0.000  0.000  0.025
    3  0.008  0.003  0.000  0.003  0.001  0.000  0.000  0.000  0.000  0.015
    4  0.008  0.003  0.000  0.003  0.001  0.000  0.000  0.000  0.000  0.015
    5  0.056  0.000  0.000  0.000  0.000  0.000  0.002  0.000  0.000  0.058
    6  0.003  0.007  0.000  0.000  0.000  0.000  0.000  0.000  0.002  0.011
    7  0.000  0.054  0.000  0.000  0.000  0.000  0.000  0.000  0.004  0.058
    8  0.000  0.003  0.000  0.000  0.000  0.000  0.000  0.000  0.000  0.003
tot    0.074  0.088  0.000  0.038  0.002  0.000  0.002  0.000  0.006  0.211
 
band    29 # energy    1.25156820 # occ.  1.00000000
 
ion      s     py     pz     px    dxy    dyz    dz2    dxz  x2-y2    tot
    1  0.000  0.000  0.009  0.000  0.000  0.000  0.000  0.000  0.000  0.009
    2  0.000  0.000  0.009  0.000  0.000  0.000  0.000  0.000  0.000  0.009
    3  0.000  0.000  0.012  0.000  0.000  0.000  0.000  0.000  0.000  0.013
    4  0.000  0.000  0.012  0.000  0.000  0.000  0.000  0.000  0.000  0.013
    5  0.000  0.000  0.010  0.000  0.000  0.000  0.000  0.000  0.000  0.010
    6  0.000  0.000  0.019  0.000  0.000  0.001  0.000  0.000  0.000  0.020
    7  0.000  0.000  0.016  0.000  0.000  0.009  0.000  0.000  0.000  0.024
    8  0.000  0.000  0.178  0.000  0.000  0.000  0.000  0.000  0.000  0.178
tot    0.000  0.000  0.265  0.000  0.000  0.010  0.000  0.001  0.000  0.275
 
band    30 # energy    1.69889877 # occ.  1.00000000
 
ion      s     py     pz     px    dxy    dyz    dz2    dxz  x2-y2    tot
    1  0.000  0.000  0.000  0.000  0.000  0.001  0.000  0.000  0.000  0.001
    2  0.000  0.000  0.000  0.000  0.000  0.001  0.000  0.000  0.000  0.001
    3  0.000  0.000  0.002  0.000  0.000  0.000  0.000  0.000  0.000  0.003
    4  0.000  0.000  0.002  0.000  0.000  0.000  0.000  0.000  0.000  0.003
    5  0.000  0.000  0.006  0.000  0.000  0.001  0.000  0.000  0.000  0.007
    6  0.000  0.000  0.000  0.000  0.000  0.000  0.000  0.000  0.000  0.000
    7  0.000  0.000  0.000  0.000  0.000  0.800  0.000  0.000  0.000  0.800
    8  0.000  0.000  0.003  0.000  0.000  0.000  0.000  0.000  0.000  0.003
tot    0.000  0.000  0.014  0.000  0.000  0.802  0.000  0.001  0.000  0.817
 
band    31 # energy    1.73020481 # occ.  1.00000000
 
ion      s     py     pz     px    dxy    dyz    dz2    dxz  x2-y2    tot
    1  0.000  0.000  0.000  0.000  0.000  0.000  0.000  0.000  0.000  0.000
    2  0.000  0.000  0.000  0.000  0.000  0.000  0.000  0.000  0.000  0.000
    3  0.000  0.000  0.005  0.000  0.000  0.000  0.000  0.000  0.000  0.005
    4  0.000  0.000  0.005  0.000  0.000  0.000  0.000  0.000  0.000  0.005
    5  0.000  0.000  0.000  0.000  0.000  0.000  0.000  0.001  0.000  0.001
    6  0.000  0.000  0.000  0.000  0.000  0.000  0.000  0.000  0.000  0.000
    7  0.000  0.000  0.000  0.000  0.000  0.000  0.000  0.820  0.000  0.820
    8  0.000  0.000  0.000  0.000  0.000  0.000  0.000  0.000  0.000  0.000
tot    0.000  0.000  0.009  0.000  0.000  0.001  0.000  0.821  0.000  0.832
 
band    32 # energy    1.94853859 # occ.  1.00000000
 
ion      s     py     pz     px    dxy    dyz    dz2    dxz  x2-y2    tot
    1  0.001  0.000  0.000  0.000  0.002  0.000  0.002  0.000  0.000  0.006
    2  0.001  0.000  0.000  0.000  0.002  0.000  0.002  0.000  0.000  0.006
    3  0.006  0.000  0.000  0.008  0.000  0.000  0.001  0.000  0.000  0.016
    4  0.006  0.000  0.000  0.008  0.000  0.000  0.001  0.000  0.000  0.016
    5  0.002  0.007  0.000  0.000  0.000  0.000  0.003  0.000  0.000  0.012
    6  0.041  0.001  0.000  0.000  0.000  0.000  0.000  0.000  0.000  0.042
    7  0.085  0.000  0.000  0.000  0.000  0.000  0.033  0.000  0.270  0.388
    8  0.014  0.002  0.000  0.000  0.000  0.000  0.000  0.000  0.000  0.016
tot    0.157  0.010  0.000  0.016  0.004  0.000  0.044  0.000  0.270  0.501
 
band    33 # energy    2.35125419 # occ.  1.00000000
 
ion      s     py     pz     px    dxy    dyz    dz2    dxz  x2-y2    tot
    1  0.000  0.000  0.000  0.000  0.000  0.000  0.000  0.000  0.000  0.001
    2  0.000  0.000  0.000  0.000  0.000  0.000  0.000  0.000  0.000  0.001
    3  0.000  0.001  0.000  0.001  0.000  0.000  0.001  0.000  0.000  0.003
    4  0.000  0.001  0.000  0.001  0.000  0.000  0.001  0.000  0.000  0.003
    5  0.000  0.002  0.000  0.000  0.000  0.000  0.000  0.000  0.000  0.002
    6  0.002  0.000  0.000  0.000  0.000  0.000  0.000  0.000  0.000  0.002
    7  0.047  0.000  0.000  0.000  0.000  0.000  0.282  0.000  0.434  0.763
    8  0.012  0.000  0.000  0.000  0.000  0.000  0.000  0.000  0.000  0.012
tot    0.062  0.004  0.000  0.002  0.000  0.000  0.284  0.000  0.435  0.789
 
band    34 # energy    2.65172508 # occ.  1.10345999
 
ion      s     py     pz     px    dxy    dyz    dz2    dxz  x2-y2    tot
    1  0.010  0.000  0.000  0.000  0.000  0.000  0.002  0.000  0.000  0.012
    2  0.010  0.000  0.000  0.000  0.000  0.000  0.002  0.000  0.000  0.012
    3  0.005  0.004  0.000  0.000  0.000  0.000  0.000  0.000  0.000  0.010
    4  0.005  0.004  0.000  0.000  0.000  0.000  0.000  0.000  0.000  0.010
    5  0.000  0.000  0.000  0.010  0.001  0.000  0.000  0.000  0.000  0.011
    6  0.000  0.000  0.000  0.012  0.001  0.000  0.000  0.000  0.000  0.013
    7  0.000  0.000  0.000  0.000  0.616  0.000  0.000  0.000  0.000  0.617
    8  0.000  0.000  0.000  0.002  0.000  0.000  0.000  0.000  0.000  0.002
tot    0.029  0.008  0.000  0.024  0.619  0.000  0.005  0.000  0.001  0.687
 
band    35 # energy    3.45834877 # occ.  0.01234585
 
ion      s     py     pz     px    dxy    dyz    dz2    dxz  x2-y2    tot
    1  0.017  0.000  0.000  0.000  0.000  0.000  0.000  0.000  0.001  0.018
    2  0.017  0.000  0.000  0.000  0.000  0.000  0.000  0.000  0.001  0.018
    3  0.021  0.009  0.000  0.006  0.001  0.000  0.001  0.000  0.000  0.038
    4  0.021  0.009  0.000  0.006  0.001  0.000  0.001  0.000  0.000  0.038
    5  0.001  0.003  0.000  0.000  0.000  0.000  0.001  0.000  0.000  0.006
    6  0.023  0.021  0.000  0.000  0.000  0.000  0.002  0.000  0.001  0.046
    7  0.000  0.000  0.000  0.000  0.000  0.000  0.182  0.000  0.121  0.303
    8  0.020  0.002  0.000  0.000  0.000  0.000  0.000  0.000  0.000  0.022
tot    0.118  0.044  0.000  0.013  0.003  0.000  0.188  0.000  0.123  0.488
 
band    36 # energy    4.09919414 # occ.  0.00000000
 
ion      s     py     pz     px    dxy    dyz    dz2    dxz  x2-y2    tot
    1  0.000  0.000  0.021  0.000  0.000  0.000  0.000  0.000  0.000  0.021
    2  0.000  0.000  0.021  0.000  0.000  0.000  0.000  0.000  0.000  0.021
    3  0.000  0.000  0.004  0.000  0.000  0.001  0.000  0.003  0.000  0.008
    4  0.000  0.000  0.004  0.000  0.000  0.001  0.000  0.003  0.000  0.008
    5  0.000  0.000  0.030  0.000  0.000  0.000  0.000  0.000  0.000  0.030
    6  0.000  0.000  0.001  0.000  0.000  0.006  0.000  0.000  0.000  0.007
    7  0.000  0.000  0.038  0.000  0.000  0.001  0.000  0.000  0.000  0.038
    8  0.000  0.000  0.176  0.000  0.000  0.000  0.000  0.000  0.000  0.176
tot    0.000  0.000  0.293  0.000  0.000  0.009  0.000  0.007  0.000  0.309
 
band    37 # energy    5.53768452 # occ.  0.00000000
 
ion      s     py     pz     px    dxy    dyz    dz2    dxz  x2-y2    tot
    1  0.001  0.000  0.000  0.000  0.000  0.000  0.001  0.000  0.000  0.003
    2  0.001  0.000  0.000  0.000  0.000  0.000  0.001  0.000  0.000  0.003
    3  0.014  0.001  0.000  0.006  0.001  0.000  0.000  0.000  0.002  0.024
    4  0.014  0.001  0.000  0.006  0.001  0.000  0.000  0.000  0.002  0.024