<?xml version="1.0" encoding="ISO-8859-1"?>
<modeling>
 <generator>
  <i name="program" type="string">vasp </i>
  <i name="version" type="string">6.4.3  </i>
  <i name="subversion" type="string">19Mar24 (build Feb 19 2025 12:53:47) complex                          parallel </i>
  <i name="platform" type="string">LinuxNV </i>
  <i name="date" type="string">2025 04 25 </i>
  <i name="time" type="string">10:20:06 </i>
 </generator>
 <incar>
  <i type="string" name="PREC">Accurate</i>
  <i type="string" name="ALGO">Fast</i>
  <i type="int" name="ISPIN">     2</i>
  <i type="int" name="NELM">   100</i>
  <i type="int" name="IBRION">     2</i>
  <i name="EDIFF">      0.00040000</i>
  <i type="int" name="NSW">    99</i>
  <i type="int" name="ISIF">     3</i>
  <i name="ENCUT">    520.00000000</i>
  <v name="MAGMOM">      0.60000000      0.60000000      0.60000000      0.60000000      0.60000000      0.60000000      5.00000000      0.60000000</v>
  <i type="string" name="LREAL">Auto</i>
  <i type="int" name="ISMEAR">    -5</i>
  <i name="SIGMA">      0.05000000</i>
  <i type="int" name="LMAXMIX">     4</i>
  <i type="logical" name="LWAVE"> F  </i>
  <i type="int" name="LORBIT">    11</i>
  <i type="logical" name="LASPH"> T  </i>
 </incar>
 <primitive_cell>
  <structure name="primitive_cell" >
   <crystal>
    <varray name="basis" >
     <v>       3.08708400      -5.23568600       0.00000000 </v>
     <v>       3.08708400       5.23568600       0.00000000 </v>
     <v>       0.00000000       0.00000000       4.63052100 </v>
    </varray>
    <i name="volume">    149.68624481 </i>
    <varray name="rec_basis" >
     <v>       0.16196514      -0.09549847       0.00000000 </v>
     <v>       0.16196514       0.09549847      -0.00000000 </v>
     <v>      -0.00000000       0.00000000       0.21595842 </v>
    </varray>
   </crystal>
   <varray name="positions" >
    <v>       0.66396200       0.83585100       0.00000000 </v>
    <v>       0.16414900       0.33603800       0.00000000 </v>
    <v>       0.84904300       0.66958100       0.50000000 </v>
    <v>       0.33041900       0.15095700       0.50000000 </v>
    <v>       0.82887500       0.17112500       0.50000000 </v>
    <v>       0.32304900       0.67695100       0.50000000 </v>
    <v>       0.66644500       0.33355500       0.00000000 </v>
    <v>       0.17406200       0.82593800       0.00000000 </v>
   </varray>
  </structure>
  <varray name="primitive_index" >
   <v type="int" >        1 </v>
   <v type="int" >        2 </v>
   <v type="int" >        3 </v>
   <v type="int" >        4 </v>
   <v type="int" >        5 </v>
   <v type="int" >        6 </v>
   <v type="int" >        7 </v>
   <v type="int" >        8 </v>
  </varray>
 </primitive_cell>
 <kpoints>
  <generation param="Gamma">
   <v type="int" name="divisions">       4        4        5 </v>
   <v name="usershift">      0.00000000       0.00000000       0.00000000 </v>
   <v name="genvec1">      0.25000000      -0.00000000       0.00000000 </v>
   <v name="genvec2">     -0.00000000       0.25000000       0.00000000 </v>
   <v name="genvec3">      0.00000000       0.00000000       0.20000000 </v>
   <v name="shift">      0.00000000       0.00000000       0.00000000 </v>
  </generation>
  <varray name="kpointlist" >
   <v>       0.00000000       0.00000000       0.00000000 </v>
   <v>       0.25000000       0.00000000       0.00000000 </v>
   <v>       0.50000000       0.00000000       0.00000000 </v>
   <v>       0.25000000       0.25000000       0.00000000 </v>
   <v>       0.50000000       0.25000000       0.00000000 </v>
   <v>      -0.25000000       0.25000000       0.00000000 </v>
   <v>       0.50000000       0.50000000       0.00000000 </v>
   <v>       0.00000000       0.00000000       0.20000000 </v>
   <v>       0.25000000       0.00000000       0.20000000 </v>
   <v>       0.50000000       0.00000000       0.20000000 </v>
   <v>       0.25000000       0.25000000       0.20000000 </v>
   <v>       0.50000000       0.25000000       0.20000000 </v>
   <v>      -0.25000000       0.25000000       0.20000000 </v>
   <v>       0.50000000       0.50000000       0.20000000 </v>
   <v>       0.00000000       0.00000000       0.40000000 </v>
   <v>       0.25000000       0.00000000       0.40000000 </v>
   <v>       0.50000000       0.00000000       0.40000000 </v>
   <v>       0.25000000       0.25000000       0.40000000 </v>
   <v>       0.50000000       0.25000000       0.40000000 </v>
   <v>      -0.25000000       0.25000000       0.40000000 </v>
   <v>       0.50000000       0.50000000       0.40000000 </v>
  </varray>
  <varray name="weights" >
   <v>       0.01250000 </v>
   <v>       0.05000000 </v>
   <v>       0.02500000 </v>
   <v>       0.02500000 </v>
   <v>       0.05000000 </v>
   <v>       0.02500000 </v>
   <v>       0.01250000 </v>
   <v>       0.02500000 </v>
   <v>       0.10000000 </v>
   <v>       0.05000000 </v>
   <v>       0.05000000 </v>
   <v>       0.10000000 </v>
   <v>       0.05000000 </v>
   <v>       0.02500000 </v>
   <v>       0.02500000 </v>
   <v>       0.10000000 </v>
   <v>       0.05000000 </v>
   <v>       0.05000000 </v>
   <v>       0.10000000 </v>
   <v>       0.05000000 </v>
   <v>       0.02500000 </v>
  </varray>
  <varray name="tetrahedronlist"  type="int" >
   <v type="int" >        4        9       12       13       16 </v>
   <v type="int" >        4        9       10       12       16 </v>
   <v type="int" >        4       10       12       16       17 </v>
   <v type="int" >        4       12       13       16       20 </v>
   <v type="int" >        4       12       16       19       20 </v>
   <v type="int" >        4       12       16       17       19 </v>
   <v type="int" >        4       10       11       12       17 </v>
   <v type="int" >        4        9       10       11       17 </v>
   <v type="int" >        4        9       11       16       17 </v>
   <v type="int" >        4       11       12       17       19 </v>
   <v type="int" >        4       11       17       18       19 </v>
   <v type="int" >        4       11       16       17       18 </v>
   <v type="int" >        4        9        9       11       16 </v>
   <v type="int" >        4        8        9        9       16 </v>
   <v type="int" >        4        8        9       15       16 </v>
   <v type="int" >        4        9       11       16       18 </v>
   <v type="int" >        4        9       16       16       18 </v>
   <v type="int" >        4        9       15       16       16 </v>
   <v type="int" >        4        8        9       13       15 </v>
   <v type="int" >        4        9       13       15       16 </v>
   <v type="int" >        4       13       15       16       20 </v>
   <v type="int" >        4       19       20       20       21 </v>
   <v type="int" >        4       19       19       20       21 </v>
   <v type="int" >        4       19       20       21       21 </v>
   <v type="int" >        4       19       19       19       21 </v>
   <v type="int" >        4       18       19       19       19 </v>
   <v type="int" >        2       18       18       19       19 </v>
   <v type="int" >        2       19       19       21       21 </v>
   <v type="int" >        4       17       18       18       19 </v>
   <v type="int" >        4       16       17       18       18 </v>
   <v type="int" >        4       16       16       17       18 </v>
   <v type="int" >        4       17       18       19       19 </v>
   <v type="int" >        4       17       17       18       19 </v>
   <v type="int" >        4       16       17       17       18 </v>
   <v type="int" >        4       16       16       17       19 </v>
   <v type="int" >        4       16       16       19       20 </v>
   <v type="int" >        4       16       19       20       20 </v>
   <v type="int" >        4       16       17       17       19 </v>
   <v type="int" >        4       16       17       19       19 </v>
   <v type="int" >        4       16       19       19       20 </v>
   <v type="int" >        4       12       18       19       19 </v>
   <v type="int" >        4       12       19       19       21 </v>
   <v type="int" >        4       12       14       19       21 </v>
   <v type="int" >        4       11       12       18       19 </v>
   <v type="int" >        4       11       12       12       19 </v>
   <v type="int" >        4       12       12       14       19 </v>
   <v type="int" >        4       14       19       20       21 </v>
   <v type="int" >        4       12       14       19       20 </v>
   <v type="int" >        4       12       13       14       20 </v>
   <v type="int" >        4       10       16       17       18 </v>
   <v type="int" >        4       10       17       18       19 </v>
   <v type="int" >        4       10       12       18       19 </v>
   <v type="int" >        4        9       10       16       18 </v>
   <v type="int" >        4        9       10       11       18 </v>
   <v type="int" >        4       10       11       12       18 </v>
   <v type="int" >        4        4        9       10       11 </v>
   <v type="int" >        4        4       10       11       12 </v>
   <v type="int" >        4        4        5       10       12 </v>
   <v type="int" >        4        2        4        9       10 </v>
   <v type="int" >        4        2        3        4       10 </v>
   <v type="int" >        4        3        4        5       10 </v>
   <v type="int" >        4        5        9       10       12 </v>
   <v type="int" >        4        5        9       12       13 </v>
   <v type="int" >        4        5        6        9       13 </v>
   <v type="int" >        4        3        5        9       10 </v>
   <v type="int" >        4        2        3        5        9 </v>
   <v type="int" >        4        2        5        6        9 </v>
   <v type="int" >        4        6        8        9       13 </v>
   <v type="int" >        4        2        6        8        9 </v>
   <v type="int" >        4        1        2        6        8 </v>
   <v type="int" >        4        2        8        9        9 </v>
   <v type="int" >        4        2        9        9       11 </v>
   <v type="int" >        4        2        4        9       11 </v>
   <v type="int" >        4        1        2        8        9 </v>
   <v type="int" >        4        1        2        2        9 </v>
   <v type="int" >        4        2        2        4        9 </v>
   <v type="int" >        4        2        9       12       13 </v>
   <v type="int" >        4        2        9       10       12 </v>
   <v type="int" >        4        2        3       10       12 </v>
   <v type="int" >        4        2        6       12       13 </v>
   <v type="int" >        4        2        5        6       12 </v>
   <v type="int" >        4        2        3        5       12 </v>
   <v type="int" >        4        3       10       11       12 </v>
   <v type="int" >        4        3        9       10       11 </v>
   <v type="int" >        4        2        3        9       11 </v>
   <v type="int" >        4        3        5       11       12 </v>
   <v type="int" >        4        3        4        5       11 </v>
   <v type="int" >        4        2        3        4       11 </v>
   <v type="int" >        4        1        8        9       13 </v>
   <v type="int" >        4        1        2        9       13 </v>
   <v type="int" >        4        1        2        6       13 </v>
   <v type="int" >        4        5        6        7       13 </v>
   <v type="int" >        4        5        7       12       13 </v>
   <v type="int" >        4        7       12       13       14 </v>
   <v type="int" >        4        5        5        7       12 </v>
   <v type="int" >        4        4        5        5       12 </v>
   <v type="int" >        4        4        5       11       12 </v>
   <v type="int" >        4        5        7       12       14 </v>
   <v type="int" >        4        5       12       12       14 </v>
   <v type="int" >        4        5       11       12       12 </v>
   <v type="int" >        4       12       13       14       21 </v>
   <v type="int" >        4       12       13       19       21 </v>
   <v type="int" >        4       13       19       20       21 </v>
   <v type="int" >        4        9       12       13       19 </v>
   <v type="int" >        4        9       10       12       19 </v>
   <v type="int" >        4        9       10       17       19 </v>
   <v type="int" >        4        9       13       19       20 </v>
   <v type="int" >        4        9       16       19       20 </v>
   <v type="int" >        4        9       16       17       19 </v>
   <v type="int" >        4       15       16       20       20 </v>
   <v type="int" >        4       15       16       16       20 </v>
   <v type="int" >        4       15       15       16       20 </v>
   <v type="int" >        4       15       16       16       16 </v>
   <v type="int" >        4       16       16       16       18 </v>
   <v type="int" >        2       16       16       18       18 </v>
   <v type="int" >        2       15       15       16       16 </v>
   <v type="int" >        4        8       15       16       20 </v>
   <v type="int" >        4        8        9       16       20 </v>
   <v type="int" >        4        8        9       13       20 </v>
   <v type="int" >        4        6       12       13       14 </v>
   <v type="int" >        4        5        6       12       14 </v>
   <v type="int" >        4        5        6        7       14 </v>
  </varray>
  <i name="volumeweight">      0.00208333 </i>
 </kpoints>
 <parameters>
  <separator name="general" >
   <i type="string" name="SYSTEM">unknown system</i>
   <i type="logical" name="LCOMPAT"> F  </i>
  </separator>
  <separator name="electronic" >
   <i type="string" name="PREC">accura</i>
   <i name="ENMAX">    520.00000000</i>
   <i name="ENAUG">    758.78000000</i>
   <i name="EDIFF">      0.00040000</i>
   <i type="int" name="IALGO">    68</i>
   <i type="int" name="IWAVPR">    11</i>
   <i type="int" name="NBANDS">    48</i>
   <i type="int" name="NBANDSLOW">    -1</i>
   <i type="int" name="NBANDSHIGH">    -1</i>
   <i name="NELECT">     64.00000000</i>
   <i type="int" name="TURBO">     0</i>
   <i type="int" name="IRESTART">     0</i>
   <i type="int" name="NREBOOT">     0</i>
   <i type="int" name="NMIN">     0</i>
   <i name="EREF">      0.00000000</i>
   <separator name="electronic smearing" >
    <i type="int" name="ISMEAR">    -5</i>
    <i name="SIGMA">      0.05000000</i>
    <i name="KSPACING">      0.50000000</i>
    <i type="logical" name="KGAMMA"> T  </i>
    <i type="logical" name="KBLOWUP"> T  </i>
   </separator>
   <separator name="electronic projectors" >
    <i type="logical" name="LREAL"> T  </i>
    <v name="ROPT">     -0.00025000     -0.00025000     -0.00025000</v>
    <i type="int" name="LMAXPAW">  -100</i>
    <i type="int" name="LMAXMIX">     4</i>
    <i type="logical" name="NLSPLINE"> F  </i>
   </separator>
   <separator name="electronic startup" >
    <i type="int" name="ISTART">     0</i>
    <i type="int" name="ICHARG">     2</i>
    <i type="int" name="INIWAV">     1</i>
   </separator>
   <separator name="electronic spin" >
    <i type="int" name="ISPIN">     2</i>
    <i type="logical" name="LNONCOLLINEAR"> F  </i>
    <v name="MAGMOM">      0.60000000      0.60000000      0.60000000      0.60000000      0.60000000      0.60000000      5.00000000      0.60000000</v>
    <i name="NUPDOWN">     -1.00000000</i>
    <i type="logical" name="LSORBIT"> F  </i>
    <v name="SAXIS">      0.00000000      0.00000000      1.00000000</v>
    <i type="logical" name="LSPIRAL"> F  </i>
    <v name="QSPIRAL">      0.00000000      0.00000000      0.00000000</v>
    <i type="logical" name="LZEROZ"> F  </i>
   </separator>
   <separator name="electronic exchange-correlation" >
    <i type="logical" name="LASPH"> T  </i>
   </separator>
   <separator name="electronic convergence" >
    <i type="int" name="NELM">   100</i>
    <i type="int" name="NELMDL">    -5</i>
    <i type="int" name="NELMIN">     2</i>
    <i name="ENINI">    520.00000000</i>
    <separator name="electronic convergence detail" >
     <i type="logical" name="LDIAG"> T  </i>
     <i type="logical" name="LSUBROT"> F  </i>
     <i name="WEIMIN">      0.00100000</i>
     <i name="EBREAK">      0.00000208</i>
     <i name="DEPER">      0.30000000</i>
     <i type="int" name="NRMM">     4</i>
     <i name="TIME">      0.40000000</i>
    </separator>
   </separator>
   <separator name="electronic mixer" >
    <i name="AMIX">      0.40000000</i>
    <i name="BMIX">      1.00000000</i>
    <i name="AMIN">      0.10000000</i>
    <i name="AMIX_MAG">      1.60000000</i>
    <i name="BMIX_MAG">      1.00000000</i>
    <separator name="electronic mixer details" >
     <i type="int" name="IMIX">     4</i>
     <i type="logical" name="MIXFIRST"> F  </i>
     <i type="int" name="MAXMIX">   -45</i>
     <i name="WC">    100.00000000</i>
     <i type="int" name="INIMIX">     1</i>
     <i type="int" name="MIXPRE">     1</i>
     <i type="int" name="MREMOVE">     5</i>
    </separator>
   </separator>
   <separator name="electronic dipolcorrection" >
    <i type="logical" name="LDIPOL"> F  </i>
    <i type="logical" name="LMONO"> F  </i>
    <i type="int" name="IDIPOL">     0</i>
    <i name="EPSILON">      1.00000000</i>
    <v name="DIPOL">   -100.00000000   -100.00000000   -100.00000000</v>
    <i name="EFIELD">      0.00000000</i>
    <i type="logical" name="LVACPOTAV"> F  </i>
   </separator>
  </separator>
  <separator name="grids" >
   <i type="int" name="NGX">    48</i>
   <i type="int" name="NGY">    48</i>
   <i type="int" name="NGZ">    36</i>
   <i type="int" name="NGXF">    96</i>
   <i type="int" name="NGYF">    96</i>
   <i type="int" name="NGZF">    72</i>
   <i type="logical" name="ADDGRID"> F  </i>
  </separator>
  <separator name="ionic" >
   <i type="int" name="NSW">    99</i>
   <i type="int" name="IBRION">     2</i>
   <i type="int" name="MDALGO">     0</i>
   <i type="int" name="ISIF">     3</i>
   <i name="PSTRESS">      0.00000000</i>
   <i name="EDIFFG">      0.00400000</i>
   <i type="int" name="NFREE">     1</i>
   <i name="POTIM">      0.50000000</i>
   <i name="SMASS">     -3.00000000</i>
   <i name="SCALEE">      1.00000000</i>
  </separator>
  <separator name="ionic md" >
   <i name="TEBEG">      0.00010000</i>
   <i name="TEEND">      0.00010000</i>
   <i type="int" name="NBLOCK">     1</i>
   <i type="int" name="KBLOCK">    99</i>
   <i type="int" name="NPACO">   256</i>
   <i name="APACO">     10.00000000</i>
  </separator>
  <separator name="symmetry" >
   <i type="int" name="ISYM">     2</i>
   <i name="SYMPREC">      0.00001000</i>
  </separator>
  <separator name="dos" >
   <i type="int" name="LORBIT">    11</i>
   <v name="RWIGS">     -1.00000000     -1.00000000     -1.00000000</v>
   <i type="int" name="NEDOS">   301</i>
   <i name="EMIN">     10.00000000</i>
   <i name="EMAX">    -10.00000000</i>
   <i name="EFERMI">      0.00000000</i>
  </separator>
  <separator name="writing" >
   <i type="int" name="NWRITE">     2</i>
   <i type="logical" name="LWAVE"> F  </i>
   <i type="logical" name="LDOWNSAMPLE"> F  </i>
   <i type="logical" name="LCHARG"> T  </i>
   <i type="logical" name="LPARD"> F  </i>
   <i type="logical" name="LVTOT"> F  </i>
   <i type="logical" name="LVHAR"> F  </i>
   <i type="logical" name="LELF"> F  </i>
   <i type="logical" name="LOPTICS"> F  </i>
   <v name="STM">      0.00000000      0.00000000      0.00000000      0.00000000      0.00000000      0.00000000      0.00000000</v>
  </separator>
  <separator name="performance" >
   <i type="int" name="NPAR">     8</i>
   <i type="int" name="NSIM">     4</i>
   <i type="int" name="NBLK">    -1</i>
   <i type="logical" name="LPLANE"> T  </i>
   <i type="logical" name="LSCALAPACK"> T  </i>
   <i type="logical" name="LSCAAWARE"> F  </i>
   <i type="logical" name="LSCALU"> F  </i>
   <i type="logical" name="LASYNC"> F  </i>
   <i type="logical" name="LORBITALREAL"> F  </i>
  </separator>
  <separator name="miscellaneous" >
   <i type="int" name="IDIOT">     3</i>
   <i type="int" name="PHON_NSTRUCT">    -1</i>
   <i type="logical" name="LMUSIC"> F  </i>
   <v name="POMASS">     24.30500000     51.99600000     12.01100000</v>
   <v name="DARWINR">      0.00000000      0.00000000      0.00000000</v>
   <v name="DARWINV">      1.00000000      1.00000000      1.00000000</v>
   <i type="logical" name="LCORR"> T  </i>
  </separator>
  <i type="logical" name="GGA_COMPAT"> T  </i>
  <i type="logical" name="LBERRY"> F  </i>
  <i type="int" name="ICORELEVEL">     0</i>
  <i type="logical" name="LDAU"> F  </i>
  <i type="int" name="I_CONSTRAINED_M">     0</i>
  <separator name="electronic exchange-correlation" >
   <i type="string" name="GGA    ">PE</i>
   <i type="string" name="XC_C">1</i>
   <i type="int" name="VOSKOWN">     0</i>
   <i type="logical" name="LHFCALC"> F  </i>
   <i type="string" name="PRECFOCK"></i>
   <i type="logical" name="LSYMGRAD"> F  </i>
   <i type="logical" name="LHFONE"> F  </i>
   <i type="logical" name="LRHFCALC"> F  </i>
   <i type="logical" name="LTHOMAS"> F  </i>
   <i type="logical" name="LMODELHF"> F  </i>
   <i type="logical" name="LFOCKACE"> F  </i>
   <i name="ENCUT4O">     -1.00000000</i>
   <i type="int" name="EXXOEP">     0</i>
   <i type="int" name="FOURORBIT">     0</i>
   <i name="AEXX">      0.00000000</i>
   <i name="HFALPHA">      0.00000000</i>
   <i name="MCALPHA">      0.00000000</i>
   <i name="ALDAX">      1.00000000</i>
   <i name="AGGAX">      1.00000000</i>
   <i name="AMGGAX">      1.00000000</i>
   <i name="ALDAC">      1.00000000</i>
   <i name="AGGAC">      1.00000000</i>
   <i name="AMGGAC">      1.00000000</i>
   <i type="int" name="NKREDX">     1</i>
   <i type="int" name="NKREDY">     1</i>
   <i type="int" name="NKREDZ">     1</i>
   <i type="logical" name="SHIFTRED"> F  </i>
   <i type="logical" name="ODDONLY"> F  </i>
   <i type="logical" name="EVENONLY"> F  </i>
   <i type="int" name="LMAXFOCK">     0</i>
   <i type="int" name="NMAXFOCKAE">     0</i>
   <i type="logical" name="LFOCKAEDFT"> F  </i>
   <i name="HFSCREEN">      0.00000000</i>
   <i name="HFSCREENC">      0.00000000</i>
   <i type="int" name="NBANDSGWLOW">     0</i>
  </separator>
  <separator name="vdW DFT" >
   <i type="logical" name="LUSE_VDW"> F  </i>
   <i type="int" name="IVDW_NL">    -1</i>
   <i type="logical" name="LSPIN_VDW"> F  </i>
   <i name="ZAB_VDW">     -0.84910000</i>
   <i name="GAMMA_VDW">      1.39626340</i>
   <i name="ALPHA_VDW">      0.00000000</i>
   <i name="PARAM1">      0.12340000</i>
   <i name="PARAM2">      1.00000000</i>
   <i name="BPARAM">      6.30000000</i>
   <i name="CPARAM">      0.00930000</i>
  </separator>
  <separator name="model GW" >
   <i type="int" name="MODEL_GW">     0</i>
   <i name="MODEL_EPS0">     11.22646836</i>
   <i name="MODEL_ALPHA">      1.00000000</i>
  </separator>
  <separator name="linear response parameters" >
   <i type="logical" name="LEPSILON"> F  </i>
   <i type="logical" name="LRPA"> F  </i>
   <i type="logical" name="LNABLA"> F  </i>
   <i type="logical" name="LVEL"> F  </i>
   <i name="CSHIFT">      0.10000000</i>
   <i name="OMEGAMAX">     -1.00000000</i>
   <i name="DEG_THRESHOLD">      0.00200000</i>
   <i name="RTIME">     -0.10000000</i>
   <i name="WPLASMAI">      0.00000000</i>
   <v name="DFIELD">      0.00000000      0.00000000      0.00000000</v>
   <v name="WPLASMA">      0.00000000      0.00000000      0.00000000      0.00000000      0.00000000      0.00000000      0.00000000      0.00000000      0.00000000</v>
  </separator>
  <separator name="orbital magnetization" >
   <i type="logical" name="NUCIND"> F  </i>
   <v name="MAGPOS">      0.00000000      0.00000000      0.00000000</v>
   <i type="logical" name="LNICSALL"> T  </i>
   <i type="logical" name="ORBITALMAG"> F  </i>
   <i type="logical" name="LMAGBLOCH"> F  </i>
   <i type="logical" name="LCHIMAG"> F  </i>
   <i type="logical" name="LGAUGE"> T  </i>
   <i type="int" name="MAGATOM">     0</i>
   <v name="MAGDIPOL">      0.00000000      0.00000000      0.00000000</v>
   <v name="AVECCONST">      0.00000000      0.00000000      0.00000000</v>
  </separator>
  <separator name="response functions" >
   <i type="logical" name="LALL_IN_ONE"> F  </i>
   <i type="int" name="IALL_IN_ONE">    -1</i>
   <i type="int" name="NBANDS_WAVE">    -1</i>
   <i type="logical" name="LFINITE_TEMPERATURE"> F  </i>
   <i type="logical" name="LADDER"> F  </i>
   <i type="logical" name="LRPAFORCE"> F  </i>
   <i type="logical" name="LFXC"> F  </i>
   <i type="logical" name="LHARTREE"> T  </i>
   <i type="int" name="IBSE">     0</i>
   <v type="int" name="KPOINT">    -1     0     0     0</v>
   <i type="logical" name="LTCTC"> F  </i>
   <i type="logical" name="LTCTE"> F  </i>
   <i type="logical" name="LTETE"> F  </i>
   <i type="logical" name="LTRIPLET"> F  </i>
   <i type="logical" name="LFXCEPS"> F  </i>
   <i type="logical" name="LFXHEG"> F  </i>
   <i type="int" name="NATURALO">     2</i>
   <i type="logical" name="LHOLEGF"> F  </i>
   <i type="logical" name="L2ORDER"> F  </i>
   <i type="logical" name="LDMP1"> F  </i>
   <i type="logical" name="LMP2LT"> F  </i>
   <i type="logical" name="LSMP2LT"> F  </i>
   <i type="logical" name="LGWLF"> F  </i>
   <i name="ENCUTGW">     -1.60000002</i>
   <i name="ENCUTGWSOFT">     -1.60000002</i>
   <i name="ENCUTLF">     -1.00000000</i>
   <i type="logical" name="ESF_SPLINES"> F  </i>
   <i name="ESF_CONV">      0.01000000</i>
   <i type="int" name="ESF_NINTER">    15</i>
   <i type="int" name="LMAXMP2">    -1</i>
   <i name="SCISSOR">      0.00000000</i>
   <i type="int" name="NOMEGA">     0</i>
   <i type="int" name="NOMEGAR">     0</i>
   <i type="int" name="NBANDSGW">    -1</i>
   <i type="int" name="NBANDSO">    -1</i>
   <i type="int" name="NBANDSV">    -1</i>
   <i type="int" name="NELMGW">     1</i>
   <i type="int" name="NELMHF">     1</i>
   <i type="int" name="DIM">     3</i>
   <i type="int" name="IESPILON">     4</i>
   <i type="int" name="ANTIRES">     0</i>
   <i name="OMEGAMAX">    -30.00000000</i>
   <i name="OMEGAMIN">    -30.00000000</i>
   <i name="OMEGATL">   -200.00000000</i>
   <i type="int" name="OMEGAGRID">     0</i>
   <i name="CSHIFT">     -0.10000000</i>
   <i type="logical" name="LSELFENERGY"> F  </i>
   <i type="logical" name="LSPECTRAL"> F  </i>
   <i type="logical" name="LSPECTRALGW"> F  </i>
   <i type="logical" name="LSINGLES"> F  </i>
   <i type="logical" name="LFERMIGW"> F  </i>
   <i type="logical" name="ODDONLYGW"> F  </i>
   <i type="logical" name="EVENONLYGW"> F  </i>
   <i type="int" name="NKREDLFX">     1</i>
   <i type="int" name="NKREDLFY">     1</i>
   <i type="int" name="NKREDLFZ">     1</i>
   <i type="int" name="MAXMEM">  2800</i>
   <i type="int" name="TELESCOPE">     0</i>
   <i type="int" name="NTAUPAR">    -1</i>
   <i type="int" name="NOMEGAPAR">    -1</i>
   <i name="DAMP_NEWTON">      0.80000001</i>
   <i name="LAMBDA">      1.00000000</i>
  </separator>
  <separator name="External order field" >
   <i name="OFIELD_KAPPA">      0.00000000</i>
   <v name="OFIELD_K">      0.00000000      0.00000000      0.00000000</v>
   <i name="OFIELD_Q6_NEAR">      0.00000000</i>
   <i name="OFIELD_Q6_FAR">      0.00000000</i>
   <i name="OFIELD_A">      0.00000000</i>
  </separator>
  <separator name="optional k-points parameters" >
   <i type="int" name="KPOINTS_OPT_MODE">     1</i>
   <i type="logical" name="LKPOINTS_OPT"> F  </i>
  </separator>
 </parameters>
 <atominfo>
  <atoms>       8 </atoms>
  <types>       3 </types>
  <array name="atoms" >
   <dimension dim="1">ion</dimension>
   <field type="string">element</field>
   <field type="int">atomtype</field>
   <set>
    <rc><c>Mg</c><c>   1</c></rc>
    <rc><c>Mg</c><c>   1</c></rc>
    <rc><c>Mg</c><c>   1</c></rc>
    <rc><c>Mg</c><c>   1</c></rc>
    <rc><c>Mg</c><c>   1</c></rc>
    <rc><c>Mg</c><c>   1</c></rc>
    <rc><c>Cr</c><c>   2</c></rc>
    <rc><c>C </c><c>   3</c></rc>
   </set>
  </array>
  <array name="atomtypes" >
   <dimension dim="1">type</dimension>
   <field type="int">atomspertype</field>
   <field type="string">element</field>
   <field>mass</field>
   <field>valence</field>
   <field type="string">pseudopotential</field>
   <set>
    <rc><c>   6</c><c>Mg</c><c>     24.30500000</c><c>      8.00000000</c><c>  PAW_PBE Mg_pv 13Apr2007               </c></rc>
    <rc><c>   1</c><c>Cr</c><c>     51.99600000</c><c>     12.00000000</c><c>  PAW_PBE Cr_pv 02Aug2007               </c></rc>
    <rc><c>   1</c><c>C </c><c>     12.01100000</c><c>      4.00000000</c><c>  PAW_PBE C 08Apr2002                   </c></rc>
   </set>
  </array>
 </atominfo>
 <structure name="initialpos" >
  <crystal>
   <varray name="basis" >
    <v>       3.08708400      -5.23568600       0.00000000 </v>
    <v>       3.08708400       5.23568600       0.00000000 </v>
    <v>       0.00000000       0.00000000       4.63052100 </v>
   </varray>
   <i name="volume">    149.68624481 </i>
   <varray name="rec_basis" >
    <v>       0.16196514      -0.09549847       0.00000000 </v>
    <v>       0.16196514       0.09549847      -0.00000000 </v>
    <v>      -0.00000000       0.00000000       0.21595842 </v>
   </varray>
  </crystal>
  <varray name="positions" >
   <v>       0.66396200       0.83585100       0.00000000 </v>
   <v>       0.16414900       0.33603800       0.00000000 </v>
   <v>       0.84904300       0.66958100       0.50000000 </v>
   <v>       0.33041900       0.15095700       0.50000000 </v>
   <v>       0.82887500       0.17112500       0.50000000 </v>
   <v>       0.32304900       0.67695100       0.50000000 </v>
   <v>       0.66644500       0.33355500       0.00000000 </v>
   <v>       0.17406200       0.82593800       0.00000000 </v>
  </varray>
 </structure>
 <calculation>
  <scstep>
   <time name="dav">    1.76    1.75</time>
   <time name="total">    4.71    5.27</time>
   <energy>
    <i name="alphaZ">    224.65487173 </i>
    <i name="ewald">  -4113.30148578 </i>
    <i name="hartreedc">  -2135.66755862 </i>
    <i name="XCdc">    227.54239711 </i>
    <i name="pawpsdc">   5306.85155175 </i>
    <i name="pawaedc">  -6063.35302485 </i>
    <i name="eentropy">      0.00000000 </i>
    <i name="bandstr">   -926.07646034 </i>
    <i name="atom">   8135.26314379 </i>
    <i name="e_fr_energy">    655.91343478 </i>
    <i name="e_wo_entrp">    655.91343478 </i>
    <i name="e_0_energy">    655.91343478 </i>
   </energy>
  </scstep>
  <scstep>
   <time name="dav">    1.52    1.54</time>
   <time name="total">    1.54    1.56</time>
   <energy>
    <i name="e_fr_energy">      9.73968263 </i>
    <i name="e_wo_entrp">      9.73968263 </i>
    <i name="e_0_energy">      9.73968263 </i>
   </energy>
  </scstep>
  <scstep>
   <time name="dav">    1.37    1.37</time>
   <time name="total">    1.39    1.39</time>
   <energy>
    <i name="e_fr_energy">    -22.07292995 </i>
    <i name="e_wo_entrp">    -22.07292995 </i>
    <i name="e_0_energy">    -22.07292995 </i>
   </energy>
  </scstep>
  <scstep>
   <time name="dav">    1.23    1.23</time>
   <time name="total">    1.25    1.25</time>
   <energy>
    <i name="e_fr_energy">    -23.09140844 </i>
    <i name="e_wo_entrp">    -23.09140844 </i>
    <i name="e_0_energy">    -23.09140844 </i>
   </energy>
  </scstep>
  <scstep>
   <time name="dav">    1.25    1.25</time>
   <time name="total">    1.32    1.32</time>
   <energy>
    <i name="e_fr_energy">    -23.11627450 </i>
    <i name="e_wo_entrp">    -23.11627450 </i>
    <i name="e_0_energy">    -23.11627450 </i>
   </energy>
  </scstep>
  <scstep>
   <time name="diag">    0.09    0.09</time>
   <time name="diis">    0.43    0.43</time>
   <time name="orth">    0.03    0.03</time>
   <time name="total">    1.04    1.04</time>
   <energy>
    <i name="e_fr_energy">    -28.50916538 </i>
    <i name="e_wo_entrp">    -28.50916538 </i>
    <i name="e_0_energy">    -28.50916538 </i>
   </energy>
  </scstep>
  <scstep>
   <time name="diag">    0.09    0.09</time>
   <time name="diis">    0.35    0.35</time>
   <time name="orth">    0.03    0.03</time>
   <time name="total">    0.93    0.93</time>
   <energy>
    <i name="e_fr_energy">    -23.24587450 </i>
    <i name="e_wo_entrp">    -23.24587450 </i>
    <i name="e_0_energy">    -23.24587450 </i>
   </energy>
  </scstep>
  <scstep>
   <time name="diag">    0.09    0.09</time>
   <time name="diis">    0.36    0.36</time>
   <time name="orth">    0.03    0.03</time>
   <time name="total">    0.93    0.93</time>
   <energy>
    <i name="e_fr_energy">    -22.06194648 </i>
    <i name="e_wo_entrp">    -22.06194648 </i>
    <i name="e_0_energy">    -22.06194648 </i>
   </energy>
  </scstep>
  <scstep>
   <time name="diag">    0.09    0.09</time>
   <time name="diis">    0.36    0.36</time>
   <time name="orth">    0.03    0.03</time>
   <time name="total">    0.95    0.95</time>
   <energy>
    <i name="e_fr_energy">    -22.34295550 </i>
    <i name="e_wo_entrp">    -22.34295550 </i>
    <i name="e_0_energy">    -22.34295550 </i>
   </energy>
  </scstep>
  <scstep>
   <time name="diag">    0.09    0.09</time>
   <time name="diis">    0.36    0.36</time>
   <time name="orth">    0.03    0.03</time>
   <time name="total">    0.93    0.93</time>
   <energy>
    <i name="e_fr_energy">    -22.50233995 </i>
    <i name="e_wo_entrp">    -22.50233995 </i>
    <i name="e_0_energy">    -22.50233995 </i>
   </energy>
  </scstep>
  <scstep>
   <time name="diag">    0.09    0.09</time>
   <time name="diis">    0.33    0.33</time>
   <time name="orth">    0.03    0.03</time>
   <time name="total">    0.91    0.91</time>
   <energy>
    <i name="e_fr_energy">    -22.49920677 </i>
    <i name="e_wo_entrp">    -22.49920677 </i>
    <i name="e_0_energy">    -22.49920677 </i>
   </energy>
  </scstep>
  <scstep>
   <time name="diag">    0.09    0.09</time>
   <time name="diis">    0.31    0.31</time>
   <time name="orth">    0.03    0.03</time>
   <time name="total">    0.87    0.87</time>
   <energy>
    <i name="e_fr_energy">    -22.50173739 </i>
    <i name="e_wo_entrp">    -22.50173739 </i>
    <i name="e_0_energy">    -22.50173739 </i>
   </energy>
  </scstep>
  <scstep>
   <time name="diag">    0.09    0.09</time>
   <time name="diis">    0.31    0.31</time>
   <time name="orth">    0.03    0.03</time>
   <time name="total">    0.88    0.88</time>
   <energy>
    <i name="e_fr_energy">    -22.50218751 </i>
    <i name="e_wo_entrp">    -22.50218751 </i>
    <i name="e_0_energy">    -22.50218751 </i>
   </energy>
  </scstep>
  <scstep>
   <time name="diag">    0.09    0.09</time>
   <time name="diis">    0.28    0.28</time>
   <time name="orth">    0.03    0.03</time>
   <time name="total">    0.80    0.80</time>
   <energy>
    <i name="alphaZ">    224.65487173 </i>
    <i name="ewald">  -4113.30148578 </i>
    <i name="hartreedc">  -2096.13846167 </i>
    <i name="XCdc">    225.83158540 </i>
    <i name="pawpsdc">   5182.17688369 </i>
    <i name="pawaedc">  -5939.46305233 </i>
    <i name="eentropy">      0.00000000 </i>
    <i name="bandstr">  -1641.52576076 </i>
    <i name="atom">   8135.26314379 </i>
    <i name="e_fr_energy">    -22.50227593 </i>
    <i name="e_wo_entrp">    -22.50227593 </i>
    <i name="e_0_energy">    -22.50227593 </i>
   </energy>
  </scstep>
  <structure>
   <crystal>
    <varray name="basis" >
     <v>       3.08708400      -5.23568600       0.00000000 </v>
     <v>       3.08708400       5.23568600       0.00000000 </v>
     <v>       0.00000000       0.00000000       4.63052100 </v>
    </varray>
    <i name="volume">    149.68624481 </i>
    <varray name="rec_basis" >
     <v>       0.16196514      -0.09549847       0.00000000 </v>
     <v>       0.16196514       0.09549847      -0.00000000 </v>
     <v>      -0.00000000       0.00000000       0.21595842 </v>
    </varray>
   </crystal>
   <varray name="positions" >
    <v>       0.66396200       0.83585100       0.00000000 </v>
    <v>       0.16414900       0.33603800       0.00000000 </v>
    <v>       0.84904300       0.66958100       0.50000000 </v>
    <v>       0.33041900       0.15095700       0.50000000 </v>
    <v>       0.82887500       0.17112500       0.50000000 </v>
    <v>       0.32304900       0.67695100       0.50000000 </v>
    <v>       0.66644500       0.33355500       0.00000000 </v>
    <v>       0.17406200       0.82593800       0.00000000 </v>
   </varray>
  </structure>
  <varray name="forces" >
   <v>      -0.04231509       0.06093442       0.00000000 </v>
   <v>       0.04231509       0.06093442       0.00000000 </v>
   <v>      -0.00207607      -0.01288157       0.00000000 </v>
   <v>       0.00207607      -0.01288157       0.00000000 </v>
   <v>       0.00000000       0.00303926       0.00000000 </v>
   <v>       0.00000000       0.02155732       0.00000000 </v>
   <v>       0.00000000       0.06636935       0.00000000 </v>
   <v>       0.00000000      -0.18707163       0.00000000 </v>
  </varray>
  <varray name="stress" >
   <v>       0.09807635       0.00000000       0.00000000 </v>
   <v>       0.00000000      -0.37622954       0.00000000 </v>
   <v>       0.00000000       0.00000000       0.99222213 </v>
  </varray>
  <energy>
   <i name="e_fr_energy">    -22.50227593 </i>
   <i name="e_wo_entrp">    -22.50227593 </i>
   <i name="e_0_energy">    -22.50227593 </i>
  </energy>
  <time name="totalsc">   20.69   21.30</time>
 </calculation>
 <calculation>
  <scstep>
   <time name="dav">    1.11    1.11</time>
   <time name="total">    1.56    1.56</time>
   <energy>
    <i name="alphaZ">    224.56455117 </i>
    <i name="ewald">  -4112.64436265 </i>
    <i name="hartreedc">  -2095.91056709 </i>
    <i name="XCdc">    225.79160947 </i>
    <i name="pawpsdc">   5180.91729064 </i>
    <i name="pawaedc">  -5938.23383556 </i>
    <i name="eentropy">      0.00000000 </i>
    <i name="bandstr">  -1642.25087575 </i>
    <i name="atom">   8135.26314379 </i>
    <i name="e_fr_energy">    -22.50304599 </i>
    <i name="e_wo_entrp">    -22.50304599 </i>
    <i name="e_0_energy">    -22.50304599 </i>
   </energy>
  </scstep>
  <scstep>
   <time name="diag">    0.09    0.09</time>
   <time name="diis">    0.34    0.34</time>
   <time name="orth">    0.03    0.03</time>
   <time name="total">    0.92    0.92</time>
   <energy>
    <i name="e_fr_energy">    -22.50432953 </i>
    <i name="e_wo_entrp">    -22.50432953 </i>
    <i name="e_0_energy">    -22.50432953 </i>
   </energy>
  </scstep>
  <scstep>
   <time name="diag">    0.09    0.09</time>
   <time name="diis">    0.31    0.31</time>
   <time name="orth">    0.03    0.03</time>
   <time name="total">    0.89    0.89</time>
   <energy>
    <i name="e_fr_energy">    -22.50475437 </i>
    <i name="e_wo_entrp">    -22.50475437 </i>
    <i name="e_0_energy">    -22.50475437 </i>
   </energy>
  </scstep>
  <scstep>
   <time name="diag">    0.09    0.09</time>
   <time name="diis">    0.26    0.26</time>
   <time name="orth">    0.03    0.03</time>
   <time name="total">    0.79    0.79</time>
   <energy>
    <i name="alphaZ">    224.56455117 </i>
    <i name="ewald">  -4112.64436265 </i>
    <i name="hartreedc">  -2096.35470202 </i>
    <i name="XCdc">    225.81925992 </i>
    <i name="pawpsdc">   5179.87906650 </i>
    <i name="pawaedc">  -5937.22470419 </i>
    <i name="eentropy">      0.00000000 </i>
    <i name="bandstr">  -1641.80693349 </i>
    <i name="atom">   8135.26314379 </i>
    <i name="e_fr_energy">    -22.50468097 </i>
    <i name="e_wo_entrp">    -22.50468097 </i>
    <i name="e_0_energy">    -22.50468097 </i>
   </energy>
  </scstep>
  <structure>
   <crystal>
    <varray name="basis" >
     <v>       3.08725458      -5.23457621       0.00000000 </v>
     <v>       3.08725458       5.23457621       0.00000000 </v>
     <v>       0.00000000       0.00000000       4.63310952 </v>
    </varray>
    <i name="volume">    149.74644908 </i>
    <varray name="rec_basis" >
     <v>       0.16195619      -0.09551872       0.00000000 </v>
     <v>       0.16195619       0.09551872      -0.00000000 </v>
     <v>      -0.00000000       0.00000000       0.21583776 </v>
    </varray>
   </crystal>
   <varray name="positions" >
    <v>       0.66335063       0.83580110       0.00000000 </v>
    <v>       0.16419890       0.33664937       0.00000000 </v>
    <v>       0.84908613       0.66950543       0.50000000 </v>
    <v>       0.33049457       0.15091387       0.50000000 </v>
    <v>       0.82886100       0.17113900       0.50000000 </v>
    <v>       0.32294968       0.67705032       0.50000000 </v>
    <v>       0.66613923       0.33386077       0.00000000 </v>
    <v>       0.17492386       0.82507614       0.00000000 </v>
   </varray>
  </structure>
  <varray name="forces" >
   <v>      -0.01282392       0.04757767       0.00000000 </v>
   <v>       0.01282392       0.04757767       0.00000000 </v>
   <v>      -0.00407594       0.01553051       0.00000000 </v>
   <v>       0.00407594       0.01553051       0.00000000 </v>
   <v>      -0.00000000       0.01099434       0.00000000 </v>
   <v>      -0.00000000       0.02153764       0.00000000 </v>
   <v>      -0.00000000       0.02135742       0.00000000 </v>
   <v>      -0.00000000      -0.18010577       0.00000000 </v>
  </varray>
  <varray name="stress" >
   <v>      -0.85205327       0.00000000       0.00000000 </v>
   <v>       0.00000000      -2.20354847       0.00000000 </v>
   <v>       0.00000000       0.00000000       0.16962433 </v>
  </varray>
  <energy>
   <i name="e_fr_energy">    -22.50468097 </i>
   <i name="e_wo_entrp">    -22.50468097 </i>
   <i name="e_0_energy">    -22.50468097 </i>
  </energy>
  <time name="totalsc">    6.05    6.06</time>
 </calculation>
 <calculation>
  <scstep>
   <time name="dav">    1.01    1.01</time>
   <time name="total">    1.46    1.46</time>
   <energy>
    <i name="alphaZ">    224.29429168 </i>
    <i name="ewald">  -4110.55836202 </i>
    <i name="hartreedc">  -2096.00234372 </i>
    <i name="XCdc">    225.70933264 </i>
    <i name="pawpsdc">   5179.29540181 </i>
    <i name="pawaedc">  -5936.63157343 </i>
    <i name="eentropy">      0.00000000 </i>
    <i name="bandstr">  -1643.86773679 </i>
    <i name="atom">   8135.26314379 </i>
    <i name="e_fr_energy">    -22.49784604 </i>
    <i name="e_wo_entrp">    -22.49784604 </i>
    <i name="e_0_energy">    -22.49784604 </i>
   </energy>
  </scstep>
  <scstep>
   <time name="diag">    0.09    0.09</time>
   <time name="diis">    0.36    0.36</time>
   <time name="orth">    0.03    0.03</time>
   <time name="total">    0.93    0.93</time>
   <energy>
    <i name="e_fr_energy">    -22.51040121 </i>
    <i name="e_wo_entrp">    -22.51040121 </i>
    <i name="e_0_energy">    -22.51040121 </i>
   </energy>
  </scstep>
  <scstep>
   <time name="diag">    0.09    0.09</time>
   <time name="diis">    0.34    0.34</time>
   <time name="orth">    0.03    0.03</time>
   <time name="total">    0.91    0.91</time>
   <energy>
    <i name="e_fr_energy">    -22.51270587 </i>
    <i name="e_wo_entrp">    -22.51270587 </i>
    <i name="e_0_energy">    -22.51270587 </i>
   </energy>
  </scstep>
  <scstep>
   <time name="diag">    0.09    0.09</time>
   <time name="diis">    0.33    0.33</time>
   <time name="orth">    0.03    0.03</time>
   <time name="total">    0.86    0.86</time>
   <energy>
    <i name="alphaZ">    224.29429168 </i>
    <i name="ewald">  -4110.55836202 </i>
    <i name="hartreedc">  -2097.44824859 </i>
    <i name="XCdc">    225.79627132 </i>
    <i name="pawpsdc">   5180.12675272 </i>
    <i name="pawaedc">  -5937.54151341 </i>
    <i name="eentropy">      0.00000000 </i>
    <i name="bandstr">  -1642.44470396 </i>
    <i name="atom">   8135.26314379 </i>
    <i name="e_fr_energy">    -22.51236847 </i>
    <i name="e_wo_entrp">    -22.51236847 </i>
    <i name="e_0_energy">    -22.51236847 </i>
   </energy>
  </scstep>
  <structure>
   <crystal>
    <varray name="basis" >
     <v>       3.08776632      -5.23124686       0.00000000 </v>
     <v>       3.08776632       5.23124686       0.00000000 </v>
     <v>       0.00000000       0.00000000       4.64087507 </v>
    </varray>
    <i name="volume">    149.92688345 </i>
    <varray name="rec_basis" >
     <v>       0.16192935      -0.09557951       0.00000000 </v>
     <v>       0.16192935       0.09557951      -0.00000000 </v>
     <v>      -0.00000000       0.00000000       0.21547660 </v>
    </varray>
   </crystal>
   <varray name="positions" >
    <v>       0.66151642       0.83565162       0.00000000 </v>
    <v>       0.16434838       0.33848358       0.00000000 </v>
    <v>       0.84921554       0.66927869       0.50000000 </v>
    <v>       0.33072131       0.15078446       0.50000000 </v>
    <v>       0.82881898       0.17118102       0.50000000 </v>
    <v>       0.32265167       0.67734833       0.50000000 </v>
    <v>       0.66522172       0.33477828       0.00000000 </v>
    <v>       0.17750998       0.82249002       0.00000000 </v>
   </varray>
  </structure>
  <varray name="forces" >
   <v>       0.04986752       0.01708829       0.00000000 </v>
   <v>      -0.04986752       0.01708829       0.00000000 </v>
   <v>      -0.01013709       0.08247202       0.00000000 </v>
   <v>       0.01013709       0.08247202       0.00000000 </v>
   <v>       0.00000000       0.02542940       0.00000000 </v>
   <v>       0.00000000       0.01179475       0.00000000 </v>
   <v>       0.00000000      -0.04185965       0.00000000 </v>
   <v>       0.00000000      -0.19448512       0.00000000 </v>
  </varray>
  <varray name="stress" >
   <v>      -1.04154622       0.00000000       0.00000000 </v>
   <v>       0.00000000      -4.10903922       0.00000000 </v>
   <v>       0.00000000       0.00000000      -0.36680282 </v>
  </varray>
  <energy>
   <i name="e_fr_energy">    -22.51236847 </i>
   <i name="e_wo_entrp">    -22.51236847 </i>
   <i name="e_0_energy">    -22.51236847 </i>
  </energy>
  <time name="totalsc">    6.06    6.07</time>
 </calculation>
 <calculation>
  <scstep>
   <time name="dav">    1.02    1.02</time>
   <time name="total">    1.47    1.47</time>
   <energy>
    <i name="alphaZ">    225.03313048 </i>
    <i name="ewald">  -4114.98849795 </i>
    <i name="hartreedc">  -2100.01034425 </i>
    <i name="XCdc">    226.13566886 </i>
    <i name="pawpsdc">   5179.29872767 </i>
    <i name="pawaedc">  -5936.67425907 </i>
    <i name="eentropy">      0.00000000 </i>
    <i name="bandstr">  -1636.57713856 </i>
    <i name="atom">   8135.26314379 </i>
    <i name="e_fr_energy">    -22.51956904 </i>
    <i name="e_wo_entrp">    -22.51956904 </i>
    <i name="e_0_energy">    -22.51956904 </i>
   </energy>
  </scstep>
  <scstep>
   <time name="diag">    0.09    0.09</time>
   <time name="diis">    0.35    0.35</time>
   <time name="orth">    0.03    0.03</time>
   <time name="total">    0.93    0.93</time>
   <energy>
    <i name="e_fr_energy">    -22.52553838 </i>
    <i name="e_wo_entrp">    -22.52553838 </i>
    <i name="e_0_energy">    -22.52553838 </i>
   </energy>
  </scstep>
  <scstep>
   <time name="diag">    0.09    0.09</time>
   <time name="diis">    0.34    0.34</time>
   <time name="orth">    0.03    0.03</time>
   <time name="total">    0.94    0.94</time>
   <energy>
    <i name="e_fr_energy">    -22.51548308 </i>
    <i name="e_wo_entrp">    -22.51548308 </i>
    <i name="e_0_energy">    -22.51548308 </i>
   </energy>
  </scstep>
  <scstep>
   <time name="diag">    0.09    0.09</time>
   <time name="diis">    0.29    0.29</time>
   <time name="orth">    0.03    0.03</time>
   <time name="total">    0.86    0.86</time>
   <energy>
    <i name="alphaZ">    225.03313048 </i>
    <i name="ewald">  -4114.98849795 </i>
    <i name="hartreedc">  -2096.24487099 </i>
    <i name="XCdc">    225.91126706 </i>
    <i name="pawpsdc">   5178.08341576 </i>
    <i name="pawaedc">  -5935.17639861 </i>
    <i name="eentropy">      0.00000000 </i>
    <i name="bandstr">  -1640.39636513 </i>
    <i name="atom">   8135.26314379 </i>
    <i name="e_fr_energy">    -22.51517560 </i>
    <i name="e_wo_entrp">    -22.51517560 </i>
    <i name="e_0_energy">    -22.51517560 </i>
   </energy>
  </scstep>
  <structure>
   <crystal>
    <varray name="basis" >
     <v>       3.08585126      -5.21844702       0.00000000 </v>
     <v>       3.08585126       5.21844702       0.00000000 </v>
     <v>       0.00000000       0.00000000       4.63986142 </v>
    </varray>
    <i name="volume">    149.43463683 </i>
    <varray name="rec_basis" >
     <v>       0.16202984      -0.09581395       0.00000000 </v>
     <v>       0.16202984       0.09581395      -0.00000000 </v>
     <v>      -0.00000000       0.00000000       0.21552368 </v>
    </varray>
   </crystal>
   <varray name="positions" >
    <v>       0.66184435       0.83614584       0.00000000 </v>
    <v>       0.16385416       0.33815565       0.00000000 </v>
    <v>       0.84873069       0.66959641       0.50000000 </v>
    <v>       0.33040359       0.15126931       0.50000000 </v>
    <v>       0.82869525       0.17130475       0.50000000 </v>
    <v>       0.32259428       0.67740572       0.50000000 </v>
    <v>       0.66542540       0.33457460       0.00000000 </v>
    <v>       0.17845628       0.82154372       0.00000000 </v>
   </varray>
  </structure>
  <varray name="forces" >
   <v>      -0.09950180       0.10682705       0.00000000 </v>
   <v>       0.09950180       0.10682705       0.00000000 </v>
   <v>      -0.00859639      -0.04626870       0.00000000 </v>
   <v>       0.00859639      -0.04626870       0.00000000 </v>
   <v>       0.00000000      -0.01745904       0.00000000 </v>
   <v>       0.00000000      -0.00399244       0.00000000 </v>
   <v>       0.00000000       0.12549659       0.00000000 </v>
   <v>       0.00000000      -0.22516181       0.00000000 </v>
  </varray>
  <varray name="stress" >
   <v>       1.11048026       0.00000000       0.00000000 </v>
   <v>       0.00000000      -2.27542541       0.00000000 </v>
   <v>       0.00000000       0.00000000       0.47056877 </v>
  </varray>
  <energy>
   <i name="e_fr_energy">    -22.51517560 </i>
   <i name="e_wo_entrp">    -22.51517560 </i>
   <i name="e_0_energy">    -22.51517560 </i>
  </energy>
  <time name="totalsc">    6.10    6.11</time>
 </calculation>
 <calculation>
  <scstep>
   <time name="dav">    1.03    1.03</time>
   <time name="total">    1.50    1.50</time>
   <energy>
    <i name="alphaZ">    225.56113473 </i>
    <i name="ewald">  -4118.13466991 </i>
    <i name="hartreedc">  -2097.29833651 </i>
    <i name="XCdc">    226.10010717 </i>
    <i name="pawpsdc">   5179.25256141 </i>
    <i name="pawaedc">  -5936.45709289 </i>
    <i name="eentropy">      0.00000000 </i>
    <i name="bandstr">  -1636.80558481 </i>
    <i name="atom">   8135.26314379 </i>
    <i name="e_fr_energy">    -22.51873703 </i>
    <i name="e_wo_entrp">    -22.51873703 </i>
    <i name="e_0_energy">    -22.51873703 </i>
   </energy>
  </scstep>
  <scstep>
   <time name="diag">    0.09    0.09</time>
   <time name="diis">    0.35    0.35</time>
   <time name="orth">    0.03    0.03</time>
   <time name="total">    0.93    0.93</time>
   <energy>
    <i name="e_fr_energy">    -22.52289257 </i>
    <i name="e_wo_entrp">    -22.52289257 </i>
    <i name="e_0_energy">    -22.52289257 </i>
   </energy>
  </scstep>
  <scstep>
   <time name="diag">    0.09    0.09</time>
   <time name="diis">    0.32    0.32</time>
   <time name="orth">    0.03    0.03</time>
   <time name="total">    0.90    0.90</time>
   <energy>
    <i name="e_fr_energy">    -22.51647063 </i>
    <i name="e_wo_entrp">    -22.51647063 </i>
    <i name="e_0_energy">    -22.51647063 </i>
   </energy>
  </scstep>
  <scstep>
   <time name="diag">    0.09    0.09</time>
   <time name="diis">    0.29    0.29</time>
   <time name="orth">    0.03    0.03</time>
   <time name="total">    0.82    0.82</time>
   <energy>
    <i name="alphaZ">    225.56113473 </i>
    <i name="ewald">  -4118.13466991 </i>
    <i name="hartreedc">  -2094.40069967 </i>
    <i name="XCdc">    225.92805419 </i>
    <i name="pawpsdc">   5179.42201055 </i>
    <i name="pawaedc">  -5936.57649663 </i>
    <i name="eentropy">      0.00000000 </i>
    <i name="bandstr">  -1639.57879524 </i>
    <i name="atom">   8135.26314379 </i>
    <i name="e_fr_energy">    -22.51631819 </i>
    <i name="e_wo_entrp">    -22.51631819 </i>
    <i name="e_0_energy">    -22.51631819 </i>
   </energy>
  </scstep>
  <structure>
   <crystal>
    <varray name="basis" >
     <v>       3.08448881      -5.20934074       0.00000000 </v>
     <v>       3.08448881       5.20934074       0.00000000 </v>
     <v>       0.00000000       0.00000000       4.63914026 </v>
    </varray>
    <i name="volume">    149.08483312 </i>
    <varray name="rec_basis" >
     <v>       0.16210141      -0.09598144       0.00000000 </v>
     <v>       0.16210141       0.09598144      -0.00000000 </v>
     <v>      -0.00000000       0.00000000       0.21555718 </v>
    </varray>
   </crystal>
   <varray name="positions" >
    <v>       0.66207768       0.83649778       0.00000000 </v>
    <v>       0.16350222       0.33792232       0.00000000 </v>
    <v>       0.84838502       0.66982311       0.50000000 </v>
    <v>       0.33017689       0.15161498       0.50000000 </v>
    <v>       0.82860701       0.17139299       0.50000000 </v>
    <v>       0.32255335       0.67744665       0.50000000 </v>
    <v>       0.66557066       0.33442934       0.00000000 </v>
    <v>       0.17913117       0.82086883       0.00000000 </v>
   </varray>
  </structure>
  <varray name="forces" >
   <v>      -0.10089206       0.10728632       0.00000000 </v>
   <v>       0.10089206       0.10728632       0.00000000 </v>
   <v>      -0.01672503      -0.03524769       0.00000000 </v>
   <v>       0.01672503      -0.03524769       0.00000000 </v>
   <v>       0.00000000      -0.01728581       0.00000000 </v>
   <v>       0.00000000      -0.01163090       0.00000000 </v>
   <v>       0.00000000       0.11853998       0.00000000 </v>
   <v>       0.00000000      -0.23370054       0.00000000 </v>
  </varray>
  <varray name="stress" >
   <v>       1.96347440       0.00000000       0.00000000 </v>
   <v>       0.00000000       0.43299451       0.00000000 </v>
   <v>       0.00000000       0.00000000       1.05053857 </v>
  </varray>
  <energy>
   <i name="e_fr_energy">    -22.51631819 </i>
   <i name="e_wo_entrp">    -22.51631819 </i>
   <i name="e_0_energy">    -22.51631819 </i>
  </energy>
  <time name="totalsc">    5.93    5.94</time>
  <eigenvalues>
   <array>
    <dimension dim="1">band</dimension>
    <dimension dim="2">kpoint</dimension>
    <dimension dim="3">spin</dimension>
    <field>eigene</field>
    <field>occ</field>
    <set>
     <set comment="spin 1">
      <set comment="kpoint 1">
       <r>  -40.7479    1.0000 </r>
       <r>  -40.7271    1.0000 </r>
       <r>  -40.7199    1.0000 </r>
       <r>  -39.4572    1.0000 </r>
       <r>  -39.4512    1.0000 </r>
       <r>  -39.4393    1.0000 </r>
       <r>  -39.2951    1.0000 </r>
       <r>  -39.2888    1.0000 </r>
       <r>  -39.2874    1.0000 </r>
       <r>  -39.2814    1.0000 </r>
       <r>  -39.2796    1.0000 </r>
       <r>  -39.2656    1.0000 </r>
       <r>  -39.2435    1.0000 </r>
       <r>  -39.2419    1.0000 </r>
       <r>  -39.2415    1.0000 </r>
       <r>  -39.2285    1.0000 </r>
       <r>  -39.2073    1.0000 </r>
       <r>  -39.1939    1.0000 </r>
       <r>  -38.8343    1.0000 </r>
       <r>  -38.8317    1.0000 </r>
       <r>  -38.8271    1.0000 </r>
       <r>   -6.1073    1.0000 </r>
       <r>   -2.6734    1.0000 </r>
       <r>    0.3530    1.0000 </r>
       <r>    0.4157    1.0000 </r>
       <r>    0.5152    1.0000 </r>
       <r>    0.6564    1.0000 </r>
       <r>    1.1415    1.0000 </r>
       <r>    1.2516    1.0000 </r>
       <r>    1.6989    1.0000 </r>
       <r>    1.7302    1.0000 </r>
       <r>    1.9485    1.0000 </r>
       <r>    2.3513    1.0000 </r>
       <r>    2.6517    1.1035 </r>
       <r>    3.4583    0.0123 </r>
       <r>    4.0992    0.0000 </r>
       <r>    5.5377    0.0000 </r>
       <r>    5.5448    0.0000 </r>
       <r>    6.0450    0.0000 </r>
       <r>    6.8122    0.0000 </r>
       <r>    7.1895    0.0000 </r>
       <r>    7.4473    0.0000 </r>
       <r>    8.2984    0.0000 </r>
       <r>    8.5087    0.0000 </r>
       <r>    8.7378    0.0000 </r>
       <r>    9.1934    0.0000 </r>
       <r>    9.4306    0.0000 </r>
       <r>    9.4316    0.0000 </r>
      </set>
      <set comment="kpoint 2">
       <r>  -40.7478    1.0000 </r>
       <r>  -40.7271    1.0000 </r>
       <r>  -40.7198    1.0000 </r>
       <r>  -39.4567    1.0000 </r>
       <r>  -39.4508    1.0000 </r>
       <r>  -39.4392    1.0000 </r>
       <r>  -39.2935    1.0000 </r>
       <r>  -39.2893    1.0000 </r>
       <r>  -39.2857    1.0000 </r>
       <r>  -39.2814    1.0000 </r>
       <r>  -39.2796    1.0000 </r>
       <r>  -39.2687    1.0000 </r>
       <r>  -39.2436    1.0000 </r>
       <r>  -39.2417    1.0000 </r>
       <r>  -39.2391    1.0000 </r>
       <r>  -39.2300    1.0000 </r>
       <r>  -39.2059    1.0000 </r>
       <r>  -39.1963    1.0000 </r>
       <r>  -38.8344    1.0000 </r>
       <r>  -38.8316    1.0000 </r>
       <r>  -38.8273    1.0000 </r>
       <r>   -5.9950    1.0000 </r>
       <r>   -2.7861    1.0000 </r>
       <r>   -0.8068    1.0000 </r>
       <r>   -0.3005    1.0000 </r>
       <r>    0.8458    1.0000 </r>
       <r>    1.1570    1.0000 </r>
       <r>    1.2920    1.0000 </r>
       <r>    1.6653    1.0000 </r>
       <r>    1.7193    1.0000 </r>
       <r>    2.0576    1.0000 </r>
       <r>    2.0641    1.0000 </r>
       <r>    2.7271    1.0000 </r>
       <r>    3.4553    0.3129 </r>
       <r>    3.8832   -0.0125 </r>
       <r>    3.9525    0.0000 </r>
       <r>    4.9876    0.0000 </r>
       <r>    5.5184    0.0000 </r>
       <r>    5.7935    0.0000 </r>
       <r>    6.4990    0.0000 </r>
       <r>    6.5818    0.0000 </r>
       <r>    7.1735    0.0000 </r>
       <r>    8.3524    0.0000 </r>
       <r>    8.5479    0.0000 </r>
       <r>    8.9159    0.0000 </r>
       <r>    9.0430    0.0000 </r>
       <r>    9.4210    0.0000 </r>
       <r>   10.1617    0.0000 </r>
      </set>
      <set comment="kpoint 3">
       <r>  -40.7478    1.0000 </r>
       <r>  -40.7270    1.0000 </r>
       <r>  -40.7197    1.0000 </r>
       <r>  -39.4562    1.0000 </r>
       <r>  -39.4505    1.0000 </r>
       <r>  -39.4392    1.0000 </r>
       <r>  -39.2921    1.0000 </r>
       <r>  -39.2899    1.0000 </r>
       <r>  -39.2820    1.0000 </r>
       <r>  -39.2814    1.0000 </r>
       <r>  -39.2796    1.0000 </r>
       <r>  -39.2736    1.0000 </r>
       <r>  -39.2437    1.0000 </r>
       <r>  -39.2416    1.0000 </r>
       <r>  -39.2345    1.0000 </r>
       <r>  -39.2337    1.0000 </r>
       <r>  -39.2020    1.0000 </r>
       <r>  -39.2014    1.0000 </r>
       <r>  -38.8346    1.0000 </r>
       <r>  -38.8316    1.0000 </r>
       <r>  -38.8275    1.0000 </r>
       <r>   -5.8678    1.0000 </r>
       <r>   -2.9209    1.0000 </r>
       <r>   -1.3668    1.0000 </r>
       <r>   -0.6087    1.0000 </r>
       <r>    1.1046    1.0000 </r>
       <r>    1.1549    1.0000 </r>
       <r>    1.4787    1.0000 </r>
       <r>    1.6366    1.0000 </r>
       <r>    1.6742    1.0000 </r>
       <r>    2.1621    1.0000 </r>
       <r>    2.4762    1.0000 </r>
       <r>    3.1515    1.0000 </r>
       <r>    3.4713    0.0608 </r>
       <r>    4.4752    0.0000 </r>
       <r>    4.7074    0.0000 </r>
       <r>    4.9868    0.0000 </r>
       <r>    5.4069    0.0000 </r>
       <r>    5.4091    0.0000 </r>
       <r>    5.9629    0.0000 </r>
       <r>    6.1182    0.0000 </r>
       <r>    7.0339    0.0000 </r>
       <r>    7.4512    0.0000 </r>
       <r>    8.1055    0.0000 </r>
       <r>    9.2088    0.0000 </r>
       <r>    9.4307    0.0000 </r>
       <r>    9.6554    0.0000 </r>
       <r>    9.9485    0.0000 </r>
      </set>
      <set comment="kpoint 4">
       <r>  -40.7478    1.0000 </r>
       <r>  -40.7270    1.0000 </r>
       <r>  -40.7197    1.0000 </r>
       <r>  -39.4561    1.0000 </r>
       <r>  -39.4505    1.0000 </r>
       <r>  -39.4392    1.0000 </r>
       <r>  -39.2919    1.0000 </r>
       <r>  -39.2901    1.0000 </r>
       <r>  -39.2820    1.0000 </r>
       <r>  -39.2814    1.0000 </r>
       <r>  -39.2797    1.0000 </r>
       <r>  -39.2736    1.0000 </r>
       <r>  -39.2437    1.0000 </r>
       <r>  -39.2415    1.0000 </r>
       <r>  -39.2345    1.0000 </r>
       <r>  -39.2337    1.0000 </r>
       <r>  -39.2019    1.0000 </r>
       <r>  -39.2014    1.0000 </r>
       <r>  -38.8346    1.0000 </r>
       <r>  -38.8316    1.0000 </r>
       <r>  -38.8275    1.0000 </r>
       <r>   -5.8708    1.0000 </r>
       <r>   -2.7599    1.0000 </r>
       <r>   -1.9107    1.0000 </r>
       <r>    0.0998    1.0000 </r>
       <r>    1.1176    1.0000 </r>
       <r>    1.1354    1.0000 </r>
       <r>    1.1907    1.0000 </r>
       <r>    1.5651    1.0000 </r>
       <r>    1.6084    1.0000 </r>
       <r>    2.3001    1.0000 </r>
       <r>    2.4535    1.0000 </r>
       <r>    3.2474    1.0000 </r>
       <r>    3.6837   -0.1441 </r>
       <r>    4.1910    0.0000 </r>
       <r>    4.4499    0.0000 </r>
       <r>    4.7877    0.0000 </r>
       <r>    5.0474    0.0000 </r>
       <r>    5.1953    0.0000 </r>
       <r>    6.4298    0.0000 </r>
       <r>    6.8855    0.0000 </r>
       <r>    7.0281    0.0000 </r>
       <r>    7.6991    0.0000 </r>
       <r>    8.7246    0.0000 </r>
       <r>    9.0520    0.0000 </r>
       <r>    9.2227    0.0000 </r>
       <r>    9.4291    0.0000 </r>
       <r>    9.9006    0.0000 </r>
      </set>
      <set comment="kpoint 5">
       <r>  -40.7478    1.0000 </r>
       <r>  -40.7270    1.0000 </r>
       <r>  -40.7195    1.0000 </r>
       <r>  -39.4556    1.0000 </r>
       <r>  -39.4505    1.0000 </r>
       <r>  -39.4392    1.0000 </r>
       <r>  -39.2946    1.0000 </r>
       <r>  -39.2894    1.0000 </r>
       <r>  -39.2853    1.0000 </r>
       <r>  -39.2815    1.0000 </r>
       <r>  -39.2797    1.0000 </r>
       <r>  -39.2687    1.0000 </r>
       <r>  -39.2435    1.0000 </r>
       <r>  -39.2416    1.0000 </r>
       <r>  -39.2393    1.0000 </r>
       <r>  -39.2300    1.0000 </r>
       <r>  -39.2063    1.0000 </r>
       <r>  -39.1963    1.0000 </r>
       <r>  -38.8346    1.0000 </r>
       <r>  -38.8316    1.0000 </r>
       <r>  -38.8277    1.0000 </r>
       <r>   -5.8738    1.0000 </r>
       <r>   -2.7443    1.0000 </r>
       <r>   -1.8968    1.0000 </r>
       <r>   -0.0171    1.0000 </r>
       <r>    1.0582    1.0000 </r>
       <r>    1.2505    1.0000 </r>
       <r>    1.4451    1.0000 </r>
       <r>    1.5666    1.0000 </r>
       <r>    1.7611    1.0000 </r>
       <r>    2.1856    1.0000 </r>
       <r>    2.4422    1.0000 </r>
       <r>    3.0512    1.0000 </r>
       <r>    3.2501    0.6229 </r>
       <r>    3.9232    0.0000 </r>
       <r>    4.4694    0.0000 </r>
       <r>    4.7954    0.0000 </r>
       <r>    5.1173    0.0000 </r>
       <r>    5.8158    0.0000 </r>
       <r>    6.8397    0.0000 </r>
       <r>    6.8742    0.0000 </r>
       <r>    6.9851    0.0000 </r>
       <r>    7.5277    0.0000 </r>
       <r>    8.8208    0.0000 </r>
       <r>    8.8528    0.0000 </r>
       <r>    9.2886    0.0000 </r>
       <r>    9.6660    0.0000 </r>
       <r>   10.0744    0.0000 </r>
      </set>
      <set comment="kpoint 6">
       <r>  -40.7478    1.0000 </r>
       <r>  -40.7270    1.0000 </r>
       <r>  -40.7197    1.0000 </r>
       <r>  -39.4561    1.0000 </r>
       <r>  -39.4508    1.0000 </r>
       <r>  -39.4392    1.0000 </r>
       <r>  -39.2960    1.0000 </r>
       <r>  -39.2889    1.0000 </r>
       <r>  -39.2871    1.0000 </r>
       <r>  -39.2815    1.0000 </r>
       <r>  -39.2796    1.0000 </r>
       <r>  -39.2656    1.0000 </r>
       <r>  -39.2434    1.0000 </r>
       <r>  -39.2418    1.0000 </r>
       <r>  -39.2416    1.0000 </r>
       <r>  -39.2285    1.0000 </r>
       <r>  -39.2077    1.0000 </r>
       <r>  -39.1939    1.0000 </r>
       <r>  -38.8344    1.0000 </r>
       <r>  -38.8316    1.0000 </r>
       <r>  -38.8275    1.0000 </r>
       <r>   -5.9976    1.0000 </r>
       <r>   -2.7707    1.0000 </r>
       <r>   -0.8432    1.0000 </r>
       <r>   -0.2443    1.0000 </r>
       <r>    0.8927    1.0000 </r>
       <r>    1.3258    1.0000 </r>
       <r>    1.3284    1.0000 </r>
       <r>    1.5298    1.0000 </r>
       <r>    1.7125    1.0000 </r>
       <r>    1.7316    1.0000 </r>
       <r>    2.3077    1.0000 </r>
       <r>    2.9440    1.0000 </r>
       <r>    2.9911    1.0637 </r>
       <r>    3.6690   -0.0046 </r>
       <r>    4.0170    0.0000 </r>
       <r>    5.1727    0.0000 </r>
       <r>    5.5714    0.0000 </r>
       <r>    5.8384    0.0000 </r>
       <r>    6.5514    0.0000 </r>
       <r>    6.6675    0.0000 </r>
       <r>    7.5123    0.0000 </r>
       <r>    7.9842    0.0000 </r>
       <r>    8.3305    0.0000 </r>
       <r>    8.8666    0.0000 </r>
       <r>    9.1282    0.0000 </r>
       <r>    9.4467    0.0000 </r>
       <r>   10.4226    0.0000 </r>
      </set>
      <set comment="kpoint 7">
       <r>  -40.7478    1.0000 </r>
       <r>  -40.7269    1.0000 </r>
       <r>  -40.7194    1.0000 </r>
       <r>  -39.4551    1.0000 </r>
       <r>  -39.4505    1.0000 </r>
       <r>  -39.4392    1.0000 </r>
       <r>  -39.2969    1.0000 </r>
       <r>  -39.2892    1.0000 </r>
       <r>  -39.2868    1.0000 </r>
       <r>  -39.2816    1.0000 </r>
       <r>  -39.2796    1.0000 </r>
       <r>  -39.2655    1.0000 </r>
       <r>  -39.2434    1.0000 </r>
       <r>  -39.2417    1.0000 </r>
       <r>  -39.2417    1.0000 </r>
       <r>  -39.2286    1.0000 </r>
       <r>  -39.2080    1.0000 </r>
       <r>  -39.1939    1.0000 </r>
       <r>  -38.8345    1.0000 </r>
       <r>  -38.8316    1.0000 </r>
       <r>  -38.8279    1.0000 </r>
       <r>   -5.8754    1.0000 </r>
       <r>   -2.8378    1.0000 </r>
       <r>   -1.5454    1.0000 </r>
       <r>   -0.5107    1.0000 </r>
       <r>    1.1319    1.0000 </r>
       <r>    1.4462    1.0000 </r>
       <r>    1.6002    1.0000 </r>
       <r>    1.6951    1.0000 </r>
       <r>    1.7044    1.0000 </r>
       <r>    2.0747    1.0000 </r>
       <r>    2.3668    1.0000 </r>
       <r>    2.7055    1.0000 </r>
       <r>    3.4101    0.1841 </r>
       <r>    4.1523    0.0000 </r>
       <r>    4.4947    0.0000 </r>
       <r>    4.9037    0.0000 </r>
       <r>    4.9058    0.0000 </r>
       <r>    5.7619    0.0000 </r>
       <r>    6.5627    0.0000 </r>
       <r>    7.0770    0.0000 </r>
       <r>    7.1922    0.0000 </r>
       <r>    7.2091    0.0000 </r>
       <r>    8.5636    0.0000 </r>
       <r>    8.6450    0.0000 </r>
       <r>    8.9305    0.0000 </r>
       <r>    9.4295    0.0000 </r>
       <r>   10.1088    0.0000 </r>
      </set>
      <set comment="kpoint 8">
       <r>  -40.7479    1.0000 </r>
       <r>  -40.7272    1.0000 </r>
       <r>  -40.7200    1.0000 </r>
       <r>  -39.4573    1.0000 </r>
       <r>  -39.4515    1.0000 </r>
       <r>  -39.4391    1.0000 </r>
       <r>  -39.2951    1.0000 </r>
       <r>  -39.2892    1.0000 </r>
       <r>  -39.2877    1.0000 </r>
       <r>  -39.2811    1.0000 </r>
       <r>  -39.2788    1.0000 </r>
       <r>  -39.2657    1.0000 </r>
       <r>  -39.2441    1.0000 </r>
       <r>  -39.2422    1.0000 </r>
       <r>  -39.2409    1.0000 </r>
       <r>  -39.2282    1.0000 </r>
       <r>  -39.2073    1.0000 </r>
       <r>  -39.1937    1.0000 </r>
       <r>  -38.8341    1.0000 </r>
       <r>  -38.8317    1.0000 </r>
       <r>  -38.8270    1.0000 </r>
       <r>   -5.9735    1.0000 </r>
       <r>   -2.6077    1.0000 </r>
       <r>   -0.0388    1.0000 </r>
       <r>    0.5347    1.0000 </r>
       <r>    0.6282    1.0000 </r>
       <r>    0.8184    1.0000 </r>
       <r>    0.8503    1.0000 </r>
       <r>    1.1324    1.0000 </r>
       <r>    1.6691    1.0000 </r>
       <r>    1.8762    1.0000 </r>
       <r>    2.2922    1.0000 </r>
       <r>    2.3695    1.0000 </r>
       <r>    2.5732    1.0339 </r>
       <r>    3.0753    0.5221 </r>
       <r>    4.5813    0.0000 </r>
       <r>    4.6927    0.0000 </r>
       <r>    5.1222    0.0000 </r>
       <r>    5.7182    0.0000 </r>
       <r>    5.8150    0.0000 </r>
       <r>    6.2120    0.0000 </r>
       <r>    7.6728    0.0000 </r>
       <r>    7.8023    0.0000 </r>
       <r>    7.9054    0.0000 </r>
       <r>    9.4287    0.0000 </r>
       <r>   10.4224    0.0000 </r>
       <r>   10.7354    0.0000 </r>
       <r>   10.7524    0.0000 </r>
      </set>
      <set comment="kpoint 9">
       <r>  -40.7479    1.0000 </r>
       <r>  -40.7271    1.0000 </r>
       <r>  -40.7199    1.0000 </r>
       <r>  -39.4568    1.0000 </r>
       <r>  -39.4511    1.0000 </r>
       <r>  -39.4391    1.0000 </r>
       <r>  -39.2937    1.0000 </r>
       <r>  -39.2898    1.0000 </r>
       <r>  -39.2860    1.0000 </r>
       <r>  -39.2808    1.0000 </r>
       <r>  -39.2790    1.0000 </r>
       <r>  -39.2687    1.0000 </r>
       <r>  -39.2439    1.0000 </r>
       <r>  -39.2424    1.0000 </r>
       <r>  -39.2386    1.0000 </r>
       <r>  -39.2297    1.0000 </r>
       <r>  -39.2059    1.0000 </r>
       <r>  -39.1962    1.0000 </r>
       <r>  -38.8343    1.0000 </r>
       <r>  -38.8317    1.0000 </r>
       <r>  -38.8272    1.0000 </r>
       <r>   -5.8744    1.0000 </r>
       <r>   -2.6190    1.0000 </r>
       <r>   -0.7388    1.0000 </r>
       <r>   -0.0687    1.0000 </r>
       <r>    0.0732    1.0000 </r>
       <r>    1.1786    1.0000 </r>
       <r>    1.2474    1.0000 </r>
       <r>    1.6488    1.0000 </r>
       <r>    1.7061    1.0000 </r>
       <r>    1.8746    1.0000 </r>
       <r>    2.2952    1.0000 </r>
       <r>    2.5620    1.0000 </r>
       <r>    3.0738    0.9509 </r>
       <r>    3.5201    0.0608 </r>
       <r>    4.4416    0.0000 </r>
       <r>    4.6352    0.0000 </r>
       <r>    5.0208    0.0000 </r>
       <r>    5.8581    0.0000 </r>
       <r>    6.3244    0.0000 </r>
       <r>    7.0097    0.0000 </r>
       <r>    7.4694    0.0000 </r>
       <r>    7.7905    0.0000 </r>
       <r>    8.1025    0.0000 </r>
       <r>    9.2381    0.0000 </r>
       <r>    9.4269    0.0000 </r>
       <r>    9.4981    0.0000 </r>
       <r>    9.9677    0.0000 </r>
      </set>
      <set comment="kpoint 10">
       <r>  -40.7479    1.0000 </r>
       <r>  -40.7271    1.0000 </r>
       <r>  -40.7197    1.0000 </r>
       <r>  -39.4562    1.0000 </r>
       <r>  -39.4507    1.0000 </r>
       <r>  -39.4391    1.0000 </r>
       <r>  -39.2927    1.0000 </r>
       <r>  -39.2903    1.0000 </r>
       <r>  -39.2823    1.0000 </r>
       <r>  -39.2806    1.0000 </r>
       <r>  -39.2794    1.0000 </r>
       <r>  -39.2734    1.0000 </r>
       <r>  -39.2437    1.0000 </r>
       <r>  -39.2425    1.0000 </r>
       <r>  -39.2338    1.0000 </r>
       <r>  -39.2335    1.0000 </r>
       <r>  -39.2018    1.0000 </r>
       <r>  -39.2014    1.0000 </r>
       <r>  -38.8345    1.0000 </r>
       <r>  -38.8317    1.0000 </r>
       <r>  -38.8274    1.0000 </r>
       <r>   -5.7644    1.0000 </r>
       <r>   -2.6377    1.0000 </r>
       <r>   -1.3217    1.0000 </r>
       <r>   -0.3625    1.0000 </r>
       <r>    0.1904    1.0000 </r>
       <r>    0.9174    1.0000 </r>
       <r>    1.4418    1.0000 </r>
       <r>    1.5328    1.0000 </r>
       <r>    1.7873    1.0000 </r>
       <r>    2.0608    1.0000 </r>
       <r>    2.3179    1.0000 </r>
       <r>    3.0485    1.0000 </r>
       <r>    3.3389    0.5987 </r>
       <r>    3.6397   -0.0033 </r>
       <r>    4.4565    0.0000 </r>
       <r>    5.1011    0.0000 </r>
       <r>    5.5315    0.0000 </r>
       <r>    5.6857    0.0000 </r>
       <r>    6.6053    0.0000 </r>
       <r>    7.1310    0.0000 </r>
       <r>    7.3740    0.0000 </r>
       <r>    7.8405    0.0000 </r>
       <r>    8.2920    0.0000 </r>
       <r>    9.0154    0.0000 </r>
       <r>    9.3308    0.0000 </r>
       <r>    9.4298    0.0000 </r>
       <r>    9.5884    0.0000 </r>
      </set>
      <set comment="kpoint 11">
       <r>  -40.7479    1.0000 </r>
       <r>  -40.7271    1.0000 </r>
       <r>  -40.7197    1.0000 </r>
       <r>  -39.4562    1.0000 </r>
       <r>  -39.4507    1.0000 </r>
       <r>  -39.4391    1.0000 </r>
       <r>  -39.2924    1.0000 </r>
       <r>  -39.2907    1.0000 </r>
       <r>  -39.2823    1.0000 </r>
       <r>  -39.2806    1.0000 </r>
       <r>  -39.2794    1.0000 </r>
       <r>  -39.2734    1.0000 </r>
       <r>  -39.2437    1.0000 </r>
       <r>  -39.2425    1.0000 </r>
       <r>  -39.2338    1.0000 </r>
       <r>  -39.2335    1.0000 </r>
       <r>  -39.2017    1.0000 </r>
       <r>  -39.2015    1.0000 </r>
       <r>  -38.8345    1.0000 </r>
       <r>  -38.8317    1.0000 </r>
       <r>  -38.8274    1.0000 </r>
       <r>   -5.7667    1.0000 </r>
       <r>   -2.5029    1.0000 </r>
       <r>   -1.6555    1.0000 </r>
       <r>   -0.4399    1.0000 </r>
       <r>    0.7976    1.0000 </r>
       <r>    1.0299    1.0000 </r>
       <r>    1.1206    1.0000 </r>
       <r>    1.6467    1.0000 </r>
       <r>    1.8670    1.0000 </r>
       <r>    2.2693    1.0000 </r>
       <r>    2.3961    1.0000 </r>
       <r>    2.4932    1.0000 </r>
       <r>    2.7163    1.1154 </r>
       <r>    4.0123   -0.0140 </r>
       <r>    4.5274    0.0000 </r>
       <r>    5.1660    0.0000 </r>
       <r>    5.5476    0.0000 </r>
       <r>    6.0081    0.0000 </r>
       <r>    6.2563    0.0000 </r>
       <r>    6.9147    0.0000 </r>
       <r>    7.3270    0.0000 </r>
       <r>    8.2732    0.0000 </r>
       <r>    8.5020    0.0000 </r>
       <r>    9.0369    0.0000 </r>
       <r>    9.3530    0.0000 </r>
       <r>    9.8475    0.0000 </r>
       <r>   10.1141    0.0000 </r>
      </set>
      <set comment="kpoint 12">
       <r>  -40.7479    1.0000 </r>
       <r>  -40.7270    1.0000 </r>
       <r>  -40.7196    1.0000 </r>
       <r>  -39.4557    1.0000 </r>
       <r>  -39.4507    1.0000 </r>
       <r>  -39.4391    1.0000 </r>
       <r>  -39.2950    1.0000 </r>
       <r>  -39.2901    1.0000 </r>
       <r>  -39.2856    1.0000 </r>
       <r>  -39.2809    1.0000 </r>
       <r>  -39.2791    1.0000 </r>
       <r>  -39.2687    1.0000 </r>
       <r>  -39.2438    1.0000 </r>
       <r>  -39.2423    1.0000 </r>
       <r>  -39.2387    1.0000 </r>
       <r>  -39.2297    1.0000 </r>
       <r>  -39.2063    1.0000 </r>
       <r>  -39.1962    1.0000 </r>
       <r>  -38.8345    1.0000 </r>
       <r>  -38.8317    1.0000 </r>
       <r>  -38.8276    1.0000 </r>
       <r>   -5.7706    1.0000 </r>
       <r>   -2.4964    1.0000 </r>
       <r>   -1.6257    1.0000 </r>
       <r>   -0.4542    1.0000 </r>
       <r>    0.9536    1.0000 </r>
       <r>    1.0567    1.0000 </r>
       <r>    1.2769    1.0000 </r>
       <r>    1.3870    1.0000 </r>
       <r>    1.8038    1.0000 </r>
       <r>    1.9475    1.0000 </r>
       <r>    2.3683    1.0000 </r>
       <r>    2.6550    1.0000 </r>
       <r>    3.0571    0.9982 </r>
       <r>    3.7560   -0.0067 </r>
       <r>    4.1505    0.0000 </r>
       <r>    5.1956    0.0000 </r>
       <r>    5.5404    0.0000 </r>
       <r>    6.0434    0.0000 </r>
       <r>    6.6369    0.0000 </r>
       <r>    7.2502    0.0000 </r>
       <r>    7.5244    0.0000 </r>
       <r>    7.8770    0.0000 </r>
       <r>    8.4383    0.0000 </r>
       <r>    8.8293    0.0000 </r>
       <r>    9.4629    0.0000 </r>
       <r>    9.9357    0.0000 </r>
       <r>   10.0609    0.0000 </r>
      </set>
      <set comment="kpoint 13">
       <r>  -40.7479    1.0000 </r>
       <r>  -40.7271    1.0000 </r>
       <r>  -40.7197    1.0000 </r>
       <r>  -39.4562    1.0000 </r>
       <r>  -39.4510    1.0000 </r>
       <r>  -39.4391    1.0000 </r>
       <r>  -39.2961    1.0000 </r>
       <r>  -39.2895    1.0000 </r>
       <r>  -39.2875    1.0000 </r>
       <r>  -39.2811    1.0000 </r>
       <r>  -39.2788    1.0000 </r>
       <r>  -39.2656    1.0000 </r>
       <r>  -39.2440    1.0000 </r>
       <r>  -39.2421    1.0000 </r>
       <r>  -39.2410    1.0000 </r>
       <r>  -39.2282    1.0000 </r>
       <r>  -39.2077    1.0000 </r>
       <r>  -39.1937    1.0000 </r>
       <r>  -38.8343    1.0000 </r>
       <r>  -38.8317    1.0000 </r>
       <r>  -38.8274    1.0000 </r>
       <r>   -5.8779    1.0000 </r>
       <r>   -2.6128    1.0000 </r>
       <r>   -0.6921    1.0000 </r>
       <r>   -0.0359    1.0000 </r>
       <r>    0.0626    1.0000 </r>
       <r>    1.3762    1.0000 </r>
       <r>    1.3976    1.0000 </r>
       <r>    1.5150    1.0000 </r>
       <r>    1.6316    1.0000 </r>
       <r>    1.6735    1.0000 </r>
       <r>    2.2780    1.0000 </r>
       <r>    2.4182    1.0000 </r>
       <r>    2.8601    1.0352 </r>
       <r>    3.8286   -0.0248 </r>
       <r>    4.2192    0.0000 </r>
       <r>    4.9959    0.0000 </r>
       <r>    5.0641    0.0000 </r>
       <r>    5.7451    0.0000 </r>
       <r>    6.1760    0.0000 </r>
       <r>    6.6633    0.0000 </r>
       <r>    7.5950    0.0000 </r>
       <r>    8.0431    0.0000 </r>
       <r>    8.3868    0.0000 </r>
       <r>    9.2714    0.0000 </r>
       <r>    9.4446    0.0000 </r>
       <r>    9.5551    0.0000 </r>
       <r>   10.2256    0.0000 </r>
      </set>
      <set comment="kpoint 14">
       <r>  -40.7479    1.0000 </r>
       <r>  -40.7270    1.0000 </r>
       <r>  -40.7195    1.0000 </r>
       <r>  -39.4551    1.0000 </r>
       <r>  -39.4506    1.0000 </r>
       <r>  -39.4391    1.0000 </r>
       <r>  -39.2972    1.0000 </r>
       <r>  -39.2899    1.0000 </r>
       <r>  -39.2872    1.0000 </r>
       <r>  -39.2811    1.0000 </r>
       <r>  -39.2789    1.0000 </r>
       <r>  -39.2656    1.0000 </r>
       <r>  -39.2439    1.0000 </r>
       <r>  -39.2421    1.0000 </r>
       <r>  -39.2410    1.0000 </r>
       <r>  -39.2283    1.0000 </r>
       <r>  -39.2080    1.0000 </r>
       <r>  -39.1938    1.0000 </r>
       <r>  -38.8344    1.0000 </r>
       <r>  -38.8317    1.0000 </r>
       <r>  -38.8278    1.0000 </r>
       <r>   -5.7735    1.0000 </r>
       <r>   -2.5745    1.0000 </r>
       <r>   -1.3911    1.0000 </r>
       <r>   -0.2947    1.0000 </r>
       <r>    0.2806    1.0000 </r>
       <r>    0.8676    1.0000 </r>
       <r>    1.5164    1.0000 </r>
       <r>    1.5695    1.0000 </r>
       <r>    1.6344    1.0000 </r>
       <r>    2.2598    1.0000 </r>
       <r>    2.4031    1.0000 </r>
       <r>    3.0227    1.0000 </r>
       <r>    3.2122    0.9486 </r>
       <r>    3.3524    0.0767 </r>
       <r>    3.6697    0.0000 </r>
       <r>    5.3915    0.0000 </r>
       <r>    5.5982    0.0000 </r>
       <r>    6.3618    0.0000 </r>
       <r>    6.4416    0.0000 </r>
       <r>    7.1712    0.0000 </r>
       <r>    7.2201    0.0000 </r>
       <r>    7.8365    0.0000 </r>
       <r>    8.2821    0.0000 </r>
       <r>    9.1148    0.0000 </r>
[...]
        <r>  0.0498  0.0022  0.0000  0.0002  0.0000  0.0001  0.0002  0.0001  0.0001 </r>
        <r>  0.0498  0.0022  0.0000  0.0002  0.0000  0.0001  0.0002  0.0001  0.0001 </r>
        <r>  0.0125  0.0063  0.0001  0.0000  0.0000  0.0000  0.0001  0.0000  0.0001 </r>
        <r>  0.0240  0.0082  0.0015  0.0000  0.0000  0.0000  0.0001  0.0000  0.0000 </r>
        <r>  0.0037  0.0005  0.0120  0.0000  0.0000  0.0001  0.0007  0.0000  0.0001 </r>
        <r>  0.0066  0.0021  0.0553  0.0000  0.0000  0.0000  0.0000  0.0000  0.0000 </r>
       </set>
       <set comment="band 25">
        <r>  0.0307  0.0000  0.0094  0.0000  0.0000  0.0000  0.0002  0.0000  0.0001 </r>
        <r>  0.0307  0.0000  0.0094  0.0000  0.0000  0.0000  0.0002  0.0000  0.0001 </r>
        <r>  0.0137  0.0029  0.0024  0.0000  0.0000  0.0005  0.0001  0.0000  0.0000 </r>
        <r>  0.0137  0.0029  0.0024  0.0000  0.0000  0.0005  0.0001  0.0000  0.0000 </r>
        <r>  0.0187  0.0024  0.0068  0.0000  0.0000  0.0002  0.0001  0.0000  0.0001 </r>
        <r>  0.0141  0.0030  0.0061  0.0000  0.0000  0.0003  0.0002  0.0000  0.0001 </r>
        <r>  0.0000  0.0060  0.0004  0.0000  0.0000  0.0110  0.0001  0.0000  0.0003 </r>
        <r>  0.0010  0.0264  0.0007  0.0000  0.0000  0.0000  0.0000  0.0000  0.0000 </r>
       </set>
       <set comment="band 26">
        <r>  0.0231  0.0000  0.0032  0.0000  0.0000  0.0000  0.0001  0.0000  0.0008 </r>
        <r>  0.0231  0.0000  0.0032  0.0000  0.0000  0.0000  0.0001  0.0000  0.0008 </r>
        <r>  0.0208  0.0000  0.0039  0.0000  0.0000  0.0000  0.0000  0.0000  0.0008 </r>
        <r>  0.0208  0.0000  0.0039  0.0000  0.0000  0.0000  0.0000  0.0000  0.0008 </r>
        <r>  0.0000  0.0000  0.0000  0.0118  0.0000  0.0000  0.0000  0.0008  0.0000 </r>
        <r>  0.0000  0.0000  0.0000  0.0121  0.0000  0.0000  0.0000  0.0011  0.0000 </r>
        <r>  0.0000  0.0000  0.0000  0.0171  0.0000  0.0000  0.0000  0.0108  0.0000 </r>
        <r>  0.0000  0.0000  0.0000  0.0941  0.0000  0.0000  0.0000  0.0000  0.0000 </r>
       </set>
       <set comment="band 27">
        <r>  0.0000  0.0033  0.0000  0.0086  0.0000  0.0000  0.0000  0.0009  0.0000 </r>
        <r>  0.0000  0.0033  0.0000  0.0086  0.0000  0.0000  0.0000  0.0009  0.0000 </r>
        <r>  0.0005  0.0000  0.0025  0.0137  0.0001  0.0000  0.0000  0.0003  0.0000 </r>
        <r>  0.0005  0.0000  0.0025  0.0137  0.0001  0.0000  0.0000  0.0003  0.0000 </r>
        <r>  0.0346  0.0004  0.0070  0.0000  0.0000  0.0002  0.0001  0.0000  0.0007 </r>
        <r>  0.0202  0.0000  0.0001  0.0000  0.0000  0.0003  0.0001  0.0000  0.0012 </r>
        <r>  0.0718  0.0001  0.0066  0.0000  0.0000  0.0000  0.0002  0.0000  0.0084 </r>
        <r>  0.0025  0.0008  0.0367  0.0000  0.0000  0.0000  0.0000  0.0000  0.0000 </r>
       </set>
       <set comment="band 28">
        <r>  0.0065  0.0000  0.0095  0.0000  0.0000  0.0000  0.0001  0.0000  0.0004 </r>
        <r>  0.0065  0.0000  0.0095  0.0000  0.0000  0.0000  0.0001  0.0000  0.0004 </r>
        <r>  0.0236  0.0000  0.0051  0.0001  0.0000  0.0000  0.0000  0.0000  0.0011 </r>
        <r>  0.0236  0.0000  0.0051  0.0001  0.0000  0.0000  0.0000  0.0000  0.0011 </r>
        <r>  0.0000  0.0000  0.0000  0.0183  0.0000  0.0000  0.0000  0.0010  0.0000 </r>
        <r>  0.0000  0.0000  0.0000  0.0170  0.0000  0.0000  0.0000  0.0013  0.0000 </r>
        <r>  0.0000  0.0000  0.0000  0.0090  0.0000  0.0000  0.0000  0.0429  0.0000 </r>
        <r>  0.0000  0.0000  0.0000  0.0840  0.0000  0.0000  0.0000  0.0000  0.0000 </r>
       </set>
       <set comment="band 29">
        <r>  0.0002  0.0043  0.0000  0.0105  0.0001  0.0002  0.0000  0.0014  0.0000 </r>
        <r>  0.0002  0.0043  0.0000  0.0105  0.0001  0.0002  0.0000  0.0014  0.0000 </r>
        <r>  0.0023  0.0002  0.0025  0.0115  0.0001  0.0000  0.0001  0.0010  0.0000 </r>
        <r>  0.0023  0.0002  0.0025  0.0115  0.0001  0.0000  0.0001  0.0010  0.0000 </r>
        <r>  0.0241  0.0015  0.0161  0.0000  0.0000  0.0001  0.0002  0.0000  0.0006 </r>
        <r>  0.0083  0.0000  0.0015  0.0000  0.0000  0.0002  0.0000  0.0000  0.0009 </r>
        <r>  0.0606  0.0004  0.0206  0.0000  0.0000  0.0001  0.0078  0.0000  0.0169 </r>
        <r>  0.0052  0.0031  0.0220  0.0000  0.0000  0.0000  0.0000  0.0000  0.0000 </r>
       </set>
       <set comment="band 30">
        <r>  0.0109  0.0022  0.0002  0.0010  0.0042  0.0000  0.0002  0.0000  0.0006 </r>
        <r>  0.0109  0.0022  0.0002  0.0010  0.0042  0.0000  0.0002  0.0000  0.0006 </r>
        <r>  0.0001  0.0000  0.0011  0.0001  0.0000  0.0003  0.0000  0.0015  0.0000 </r>
        <r>  0.0001  0.0000  0.0011  0.0001  0.0000  0.0003  0.0000  0.0015  0.0000 </r>
        <r>  0.0019  0.0000  0.0049  0.0000  0.0000  0.0007  0.0001  0.0000  0.0000 </r>
        <r>  0.0027  0.0001  0.0020  0.0000  0.0000  0.0015  0.0003  0.0000  0.0000 </r>
        <r>  0.0089  0.0130  0.0004  0.0000  0.0000  0.0006  0.0015  0.0000  0.0003 </r>
        <r>  0.0060  0.2901  0.0001  0.0000  0.0000  0.0000  0.0000  0.0000  0.0000 </r>
       </set>
       <set comment="band 31">
        <r>  0.0010  0.0024  0.0000  0.0165  0.0004  0.0000  0.0000  0.0008  0.0001 </r>
        <r>  0.0010  0.0024  0.0000  0.0165  0.0004  0.0000  0.0000  0.0008  0.0001 </r>
        <r>  0.0017  0.0000  0.0066  0.0007  0.0022  0.0002  0.0001  0.0000  0.0000 </r>
        <r>  0.0017  0.0000  0.0066  0.0007  0.0022  0.0002  0.0001  0.0000  0.0000 </r>
        <r>  0.0018  0.0094  0.0005  0.0000  0.0000  0.0025  0.0001  0.0000  0.0002 </r>
        <r>  0.0069  0.0053  0.0074  0.0000  0.0000  0.0005  0.0000  0.0000  0.0000 </r>
        <r>  0.0277  0.0010  0.0001  0.0000  0.0000  0.0056  0.0696  0.0000  0.0647 </r>
        <r>  0.0514  0.0106  0.0419  0.0000  0.0000  0.0000  0.0000  0.0000  0.0000 </r>
       </set>
       <set comment="band 32">
        <r>  0.0038  0.0177  0.0002  0.0004  0.0000  0.0001  0.0001  0.0000  0.0000 </r>
        <r>  0.0038  0.0177  0.0002  0.0004  0.0000  0.0001  0.0001  0.0000  0.0000 </r>
        <r>  0.0010  0.0027  0.0050  0.0000  0.0000  0.0010  0.0001  0.0002  0.0000 </r>
        <r>  0.0010  0.0027  0.0050  0.0000  0.0000  0.0010  0.0001  0.0002  0.0000 </r>
        <r>  0.0000  0.0000  0.0000  0.0004  0.0008  0.0000  0.0000  0.0005  0.0000 </r>
        <r>  0.0000  0.0000  0.0000  0.0003  0.0007  0.0000  0.0000  0.0002  0.0000 </r>
        <r>  0.0000  0.0000  0.0000  0.0003  0.4813  0.0000  0.0000  0.0066  0.0000 </r>
        <r>  0.0000  0.0000  0.0000  0.0146  0.0000  0.0000  0.0000  0.0000  0.0000 </r>
       </set>
       <set comment="band 33">
        <r>  0.0000  0.0000  0.0002  0.0011  0.0000  0.0001  0.0001  0.0001  0.0000 </r>
        <r>  0.0000  0.0000  0.0002  0.0011  0.0000  0.0001  0.0001  0.0001  0.0000 </r>
        <r>  0.0004  0.0006  0.0006  0.0049  0.0018  0.0001  0.0006  0.0000  0.0004 </r>
        <r>  0.0004  0.0006  0.0006  0.0049  0.0018  0.0001  0.0006  0.0000  0.0004 </r>
        <r>  0.0027  0.0173  0.0006  0.0000  0.0000  0.0010  0.0020  0.0000  0.0001 </r>
        <r>  0.0035  0.0003  0.0001  0.0000  0.0000  0.0002  0.0001  0.0000  0.0000 </r>
        <r>  0.0044  0.0004  0.0010  0.0000  0.0000  0.4852  0.0416  0.0000  0.0362 </r>
        <r>  0.0021  0.0016  0.0215  0.0000  0.0000  0.0000  0.0000  0.0000  0.0000 </r>
       </set>
       <set comment="band 34">
        <r>  0.0232  0.0008  0.0027  0.0001  0.0001  0.0000  0.0012  0.0000  0.0000 </r>
        <r>  0.0232  0.0008  0.0027  0.0001  0.0001  0.0000  0.0012  0.0000  0.0000 </r>
        <r>  0.0029  0.0114  0.0002  0.0004  0.0001  0.0001  0.0007  0.0001  0.0002 </r>
        <r>  0.0029  0.0114  0.0002  0.0004  0.0001  0.0001  0.0007  0.0001  0.0002 </r>
        <r>  0.0000  0.0000  0.0000  0.0033  0.0049  0.0000  0.0000  0.0027  0.0000 </r>
        <r>  0.0000  0.0000  0.0000  0.0036  0.0039  0.0000  0.0000  0.0012  0.0000 </r>
        <r>  0.0000  0.0000  0.0000  0.0001  0.0514  0.0000  0.0000  0.3019  0.0000 </r>
        <r>  0.0000  0.0000  0.0000  0.0550  0.0000  0.0000  0.0000  0.0000  0.0000 </r>
       </set>
       <set comment="band 35">
        <r>  0.0000  0.0061  0.0001  0.0021  0.0000  0.0001  0.0000  0.0000  0.0000 </r>
        <r>  0.0000  0.0061  0.0001  0.0021  0.0000  0.0001  0.0000  0.0000  0.0000 </r>
        <r>  0.0013  0.0001  0.0000  0.0000  0.0000  0.0005  0.0000  0.0015  0.0000 </r>
        <r>  0.0013  0.0001  0.0000  0.0000  0.0000  0.0005  0.0000  0.0015  0.0000 </r>
        <r>  0.0001  0.0000  0.0012  0.0000  0.0000  0.0002  0.0001  0.0000  0.0007 </r>
        <r>  0.0079  0.0008  0.0028  0.0000  0.0000  0.0002  0.0000  0.0000  0.0003 </r>
        <r>  0.0003  0.0000  0.0014  0.0000  0.0000  0.0630  0.5868  0.0000  0.0051 </r>
        <r>  0.0175  0.0002  0.0203  0.0000  0.0000  0.0000  0.0000  0.0000  0.0000 </r>
       </set>
       <set comment="band 36">
        <r>  0.0003  0.0009  0.0001  0.0012  0.0000  0.0000  0.0000  0.0028  0.0000 </r>
        <r>  0.0003  0.0009  0.0001  0.0012  0.0000  0.0000  0.0000  0.0028  0.0000 </r>
        <r>  0.0023  0.0000  0.0011  0.0000  0.0019  0.0000  0.0002  0.0001  0.0001 </r>
        <r>  0.0023  0.0000  0.0011  0.0000  0.0019  0.0000  0.0002  0.0001  0.0001 </r>
        <r>  0.0046  0.0058  0.0008  0.0000  0.0000  0.0000  0.0010  0.0000  0.0006 </r>
        <r>  0.0265  0.0072  0.0010  0.0000  0.0000  0.0007  0.0001  0.0000  0.0000 </r>
        <r>  0.0088  0.0000  0.0011  0.0000  0.0000  0.1015  0.0580  0.0000  0.2844 </r>
        <r>  0.0133  0.0000  0.0765  0.0000  0.0000  0.0000  0.0000  0.0000  0.0000 </r>
       </set>
       <set comment="band 37">
        <r>  0.0522  0.0000  0.0067  0.0001  0.0002  0.0000  0.0011  0.0000  0.0002 </r>
        <r>  0.0522  0.0000  0.0067  0.0001  0.0002  0.0000  0.0011  0.0000  0.0002 </r>
        <r>  0.0000  0.0030  0.0009  0.0005  0.0001  0.0020  0.0002  0.0001  0.0001 </r>
        <r>  0.0000  0.0030  0.0009  0.0005  0.0001  0.0020  0.0002  0.0001  0.0001 </r>
        <r>  0.0000  0.0000  0.0000  0.0010  0.0018  0.0000  0.0000  0.0057  0.0000 </r>
        <r>  0.0000  0.0000  0.0000  0.0028  0.0008  0.0000  0.0000  0.0031  0.0000 </r>
        <r>  0.0000  0.0000  0.0000  0.0011  0.0139  0.0000  0.0000  0.1866  0.0000 </r>
        <r>  0.0000  0.0000  0.0000  0.1352  0.0000  0.0000  0.0000  0.0000  0.0000 </r>
       </set>
       <set comment="band 38">
        <r>  0.0002  0.0049  0.0000  0.0134  0.0002  0.0000  0.0000  0.0019  0.0001 </r>
        <r>  0.0002  0.0049  0.0000  0.0134  0.0002  0.0000  0.0000  0.0019  0.0001 </r>
        <r>  0.0014  0.0002  0.0006  0.0000  0.0010  0.0005  0.0001  0.0002  0.0000 </r>
        <r>  0.0014  0.0002  0.0006  0.0000  0.0010  0.0005  0.0001  0.0002  0.0000 </r>
        <r>  0.0026  0.0036  0.0001  0.0000  0.0000  0.0023  0.0006  0.0000  0.0002 </r>
        <r>  0.0066  0.0024  0.0095  0.0000  0.0000  0.0016  0.0003  0.0000  0.0000 </r>
        <r>  0.0001  0.0005  0.0007  0.0000  0.0000  0.0113  0.0167  0.0000  0.4052 </r>
        <r>  0.0065  0.0037  0.0385  0.0000  0.0000  0.0000  0.0000  0.0000  0.0000 </r>
       </set>
       <set comment="band 39">
        <r>  0.0000  0.0001  0.0033  0.0000  0.0000  0.0056  0.0000  0.0000  0.0000 </r>
        <r>  0.0000  0.0001  0.0033  0.0000  0.0000  0.0056  0.0000  0.0000  0.0000 </r>
        <r>  0.0076  0.0337  0.0007  0.0004  0.0000  0.0000  0.0017  0.0001  0.0002 </r>
        <r>  0.0076  0.0337  0.0007  0.0004  0.0000  0.0000  0.0017  0.0001  0.0002 </r>
        <r>  0.0000  0.0000  0.0000  0.0131  0.0091  0.0000  0.0000  0.0000  0.0000 </r>
        <r>  0.0000  0.0000  0.0000  0.0210  0.0103  0.0000  0.0000  0.0000  0.0000 </r>
        <r>  0.0000  0.0000  0.0000  0.0002  0.0377  0.0000  0.0000  0.1361  0.0000 </r>
        <r>  0.0000  0.0000  0.0000  0.0066  0.0000  0.0000  0.0000  0.0000  0.0000 </r>
       </set>
       <set comment="band 40">
        <r>  0.0000  0.0001  0.0000  0.0007  0.0000  0.0000  0.0000  0.0043  0.0000 </r>
        <r>  0.0000  0.0001  0.0000  0.0007  0.0000  0.0000  0.0000  0.0043  0.0000 </r>
        <r>  0.0060  0.0001  0.0009  0.0203  0.0074  0.0002  0.0015  0.0002  0.0000 </r>
        <r>  0.0060  0.0001  0.0009  0.0203  0.0074  0.0002  0.0015  0.0002  0.0000 </r>
        <r>  0.0089  0.0161  0.0000  0.0000  0.0000  0.0001  0.0003  0.0000  0.0034 </r>
        <r>  0.0017  0.0388  0.0024  0.0000  0.0000  0.0006  0.0065  0.0000  0.0001 </r>
        <r>  0.0053  0.0000  0.0155  0.0000  0.0000  0.0020  0.0084  0.0000  0.0006 </r>
        <r>  0.0041  0.0003  0.1375  0.0000  0.0000  0.0000  0.0000  0.0000  0.0000 </r>
       </set>
       <set comment="band 41">
        <r>  0.0017  0.0071  0.0025  0.0004  0.0001  0.0030  0.0003  0.0000  0.0001 </r>
        <r>  0.0017  0.0071  0.0025  0.0004  0.0001  0.0030  0.0003  0.0000  0.0001 </r>
        <r>  0.0775  0.0030  0.0016  0.0001  0.0000  0.0000  0.0011  0.0001  0.0001 </r>
        <r>  0.0775  0.0030  0.0016  0.0001  0.0000  0.0000  0.0011  0.0001  0.0001 </r>
        <r>  0.0000  0.0000  0.0000  0.0115  0.0024  0.0000  0.0000  0.0000  0.0000 </r>
        <r>  0.0000  0.0000  0.0000  0.0071  0.0056  0.0000  0.0000  0.0013  0.0000 </r>
        <r>  0.0000  0.0000  0.0000  0.0045  0.0978  0.0000  0.0000  0.1773  0.0000 </r>
        <r>  0.0000  0.0000  0.0000  0.0121  0.0000  0.0000  0.0000  0.0000  0.0000 </r>
       </set>
       <set comment="band 42">
        <r>  0.0040  0.0002  0.0013  0.0000  0.0043  0.0000  0.0014  0.0013  0.0023 </r>
        <r>  0.0040  0.0002  0.0013  0.0000  0.0043  0.0000  0.0014  0.0013  0.0023 </r>
        <r>  0.0000  0.0003  0.0007  0.0135  0.0037  0.0002  0.0003  0.0005  0.0006 </r>
        <r>  0.0000  0.0003  0.0007  0.0135  0.0037  0.0002  0.0003  0.0005  0.0006 </r>
        <r>  0.0398  0.0009  0.0000  0.0000  0.0000  0.0048  0.0033  0.0000  0.0002 </r>
        <r>  0.0526  0.0088  0.0043  0.0000  0.0000  0.0009  0.0013  0.0000  0.0002 </r>
        <r>  0.0001  0.0427  0.0010  0.0000  0.0000  0.1024  0.0006  0.0000  0.0022 </r>
        <r>  0.0004  0.0386  0.0082  0.0000  0.0000  0.0000  0.0000  0.0000  0.0000 </r>
       </set>
       <set comment="band 43">
        <r>  0.0034  0.0000  0.0004  0.0000  0.0065  0.0004  0.0027  0.0006  0.0041 </r>
        <r>  0.0034  0.0000  0.0004  0.0000  0.0065  0.0004  0.0027  0.0006  0.0041 </r>
        <r>  0.0047  0.0020  0.0000  0.0060  0.0012  0.0000  0.0022  0.0021  0.0060 </r>
        <r>  0.0047  0.0020  0.0000  0.0060  0.0012  0.0000  0.0022  0.0021  0.0060 </r>
        <r>  0.0151  0.0074  0.0040  0.0000  0.0000  0.0056  0.0010  0.0000  0.0004 </r>
        <r>  0.0132  0.0267  0.0110  0.0000  0.0000  0.0011  0.0004  0.0000  0.0000 </r>
        <r>  0.0002  0.0689  0.0012  0.0000  0.0000  0.0035  0.0018  0.0000  0.0000 </r>
        <r>  0.0000  0.0087  0.0010  0.0000  0.0000  0.0000  0.0000  0.0000  0.0000 </r>
       </set>
       <set comment="band 44">
        <r>  0.0007  0.0016  0.0058  0.0001  0.0003  0.0109  0.0009  0.0001  0.0001 </r>
        <r>  0.0007  0.0016  0.0058  0.0001  0.0003  0.0109  0.0009  0.0001  0.0001 </r>
        <r>  0.0001  0.0454  0.0001  0.0013  0.0002  0.0003  0.0004  0.0000  0.0001 </r>
        <r>  0.0001  0.0454  0.0001  0.0013  0.0002  0.0003  0.0004  0.0000  0.0001 </r>
        <r>  0.0008  0.0045  0.0002  0.0000  0.0000  0.0000  0.0071  0.0000  0.0120 </r>
        <r>  0.0159  0.0025  0.0075  0.0000  0.0000  0.0000  0.0109  0.0000  0.0135 </r>
        <r>  0.0011  0.0024  0.0009  0.0000  0.0000  0.0043  0.0166  0.0000  0.0090 </r>
        <r>  0.0007  0.0001  0.0000  0.0000  0.0000  0.0000  0.0000  0.0000  0.0000 </r>
       </set>
       <set comment="band 45">
        <r>  0.0009  0.0327  0.0008  0.0010  0.0000  0.0040  0.0001  0.0000  0.0001 </r>
        <r>  0.0009  0.0327  0.0008  0.0010  0.0000  0.0040  0.0001  0.0000  0.0001 </r>
        <r>  0.0198  0.0001  0.0125  0.0000  0.0001  0.0021  0.0002  0.0001  0.0000 </r>
        <r>  0.0198  0.0001  0.0125  0.0000  0.0001  0.0021  0.0002  0.0001  0.0000 </r>
        <r>  0.0000  0.0000  0.0000  0.0057  0.0001  0.0000  0.0000  0.0051  0.0000 </r>
        <r>  0.0000  0.0000  0.0000  0.0019  0.0006  0.0000  0.0000  0.0091  0.0000 </r>
        <r>  0.0000  0.0000  0.0000  0.0004  0.2380  0.0000  0.0000  0.0271  0.0000 </r>
        <r>  0.0000  0.0000  0.0000  0.0004  0.0000  0.0000  0.0000  0.0000  0.0000 </r>
       </set>
       <set comment="band 46">
        <r>  0.0048  0.0004  0.0185  0.0001  0.0006  0.0026  0.0075  0.0001  0.0032 </r>
        <r>  0.0048  0.0004  0.0185  0.0001  0.0006  0.0026  0.0075  0.0001  0.0032 </r>
        <r>  0.0170  0.0003  0.0062  0.0001  0.0005  0.0017  0.0019  0.0005  0.0141 </r>
        <r>  0.0170  0.0003  0.0062  0.0001  0.0005  0.0017  0.0019  0.0005  0.0141 </r>
        <r>  0.0195  0.0090  0.0029  0.0000  0.0000  0.0003  0.0026  0.0000  0.0080 </r>
        <r>  0.0005  0.0011  0.0064  0.0000  0.0000  0.0009  0.0026  0.0000  0.0098 </r>
        <r>  0.0003  0.0031  0.0013  0.0000  0.0000  0.0169  0.0016  0.0000  0.0000 </r>
        <r>  0.0007  0.0032  0.0054  0.0000  0.0000  0.0000  0.0000  0.0000  0.0000 </r>
       </set>
       <set comment="band 47">
        <r>  0.0233  0.0026  0.0017  0.0001  0.0022  0.0000  0.0039  0.0000  0.0013 </r>
        <r>  0.0233  0.0025  0.0017  0.0001  0.0022  0.0000  0.0039  0.0000  0.0013 </r>
        <r>  0.0008  0.0003  0.0139  0.0022  0.0003  0.0123  0.0000  0.0025  0.0000 </r>
        <r>  0.0008  0.0003  0.0139  0.0022  0.0003  0.0122  0.0000  0.0024  0.0000 </r>
        <r>  0.0000  0.0000  0.0000  0.0018  0.0000  0.0000  0.0000  0.0004  0.0000 </r>
        <r>  0.0000  0.0000  0.0000  0.0008  0.0011  0.0000  0.0000  0.0007  0.0000 </r>
        <r>  0.0000  0.0000  0.0000  0.1225  0.0041  0.0000  0.0000  0.0086  0.0000 </r>
        <r>  0.0000  0.0000  0.0000  0.1095  0.0000  0.0000  0.0000  0.0000  0.0000 </r>
       </set>
       <set comment="band 48">
        <r>  0.0064  0.0005  0.0005  0.0004  0.0010  0.0001  0.0064  0.0002  0.0124 </r>
        <r>  0.0064  0.0005  0.0005  0.0004  0.0010  0.0001  0.0064  0.0002  0.0124 </r>
        <r>  0.0054  0.0000  0.0090  0.0013  0.0010  0.0036  0.0017  0.0001  0.0104 </r>
        <r>  0.0054  0.0000  0.0090  0.0013  0.0010  0.0036  0.0017  0.0001  0.0104 </r>
        <r>  0.0030  0.0284  0.0073  0.0000  0.0000  0.0030  0.0028  0.0000  0.0000 </r>
        <r>  0.0054  0.0126  0.0002  0.0000  0.0000  0.0004  0.0012  0.0000  0.0001 </r>
        <r>  0.0039  0.0077  0.0001  0.0000  0.0000  0.1215  0.0025  0.0000  0.0011 </r>
        <r>  0.0001  0.0029  0.0020  0.0000  0.0000  0.0000  0.0000  0.0000  0.0000 </r>
       </set>
      </set>
     </set>
    </set>
   </array>
  </projected>
 </calculation>
 <structure name="finalpos" >
  <crystal>
   <varray name="basis" >
    <v>       3.08448881      -5.20934074       0.00000000 </v>
    <v>       3.08448881       5.20934074       0.00000000 </v>
    <v>       0.00000000       0.00000000       4.63914026 </v>
   </varray>
   <i name="volume">    149.08483312 </i>
   <varray name="rec_basis" >
    <v>       0.16210141      -0.09598144       0.00000000 </v>
    <v>       0.16210141       0.09598144      -0.00000000 </v>
    <v>      -0.00000000       0.00000000       0.21555718 </v>
   </varray>
  </crystal>
  <varray name="positions" >
   <v>       0.66207768       0.83649778       0.00000000 </v>
   <v>       0.16350222       0.33792232       0.00000000 </v>
   <v>       0.84838502       0.66982311       0.50000000 </v>
   <v>       0.33017689       0.15161498       0.50000000 </v>
   <v>       0.82860701       0.17139299       0.50000000 </v>
   <v>       0.32255335       0.67744665       0.50000000 </v>
   <v>       0.66557066       0.33442934       0.00000000 </v>
   <v>       0.17913117       0.82086883       0.00000000 </v>
  </varray>
 </structure>
</modeling>
