unknown system                          
            1
     3.087084   -5.235686    0.000000
     3.087084    5.235686    0.000000
     0.000000    0.000000    4.630521
   Mg   Cr   C 
     6     1     1
Direct configuration=     1
   0.66396200  0.83585100  0.00000000
   0.16414900  0.33603800  0.00000000
   0.84904300  0.66958100  0.50000000
   0.33041900  0.15095700  0.50000000
   0.82887500  0.17112500  0.50000000
   0.32304900  0.67695100  0.50000000
   0.66644500  0.33355500  0.00000000
   0.17406200  0.82593800  0.00000000
unknown system                          
            1
     3.087255   -5.234576    0.000000
     3.087255    5.234576    0.000000
     0.000000    0.000000    4.633110
   Mg   Cr   C 
     6     1     1
Direct configuration=     2
   0.66335063  0.83580110  0.00000000
   0.16419890  0.33664937  0.00000000
   0.84908613  0.66950543  0.50000000
   0.33049457  0.15091387  0.50000000
   0.82886100  0.17113900  0.50000000
   0.32294968  0.67705032  0.50000000
   0.66613923  0.33386077  0.00000000
   0.17492386  0.82507614  0.00000000
unknown system                          
            1
     3.087766   -5.231247    0.000000
     3.087766    5.231247    0.000000
     0.000000    0.000000    4.640875
   Mg   Cr   C 
     6     1     1
Direct configuration=     3
   0.66151642  0.83565162  0.00000000
   0.16434838  0.33848358  0.00000000
   0.84921554  0.66927869  0.50000000
   0.33072131  0.15078446  0.50000000
   0.82881898  0.17118102  0.50000000
   0.32265167  0.67734833  0.50000000
   0.66522172  0.33477828  0.00000000
   0.17750998  0.82249002  0.00000000
unknown system                          
            1
     3.085851   -5.218447    0.000000
     3.085851    5.218447    0.000000
     0.000000    0.000000    4.639861
   Mg   Cr   C 
     6     1     1
Direct configuration=     4
   0.66184435  0.83614584  0.00000000
   0.16385416  0.33815565  0.00000000
   0.84873069  0.66959641  0.50000000
   0.33040359  0.15126931  0.50000000
   0.82869525  0.17130475  0.50000000
   0.32259428  0.67740572  0.50000000
   0.66542540  0.33457460  0.00000000
   0.17845628  0.82154372  0.00000000
unknown system                          
            1
     3.084489   -5.209341    0.000000
     3.084489    5.209341    0.000000
     0.000000    0.000000    4.639140
   Mg   Cr   C 
     6     1     1
Direct configuration=     5
   0.66207768  0.83649778  0.00000000
   0.16350222  0.33792232  0.00000000
   0.84838502  0.66982311  0.50000000
   0.33017689  0.15161498  0.50000000
   0.82860701  0.17139299  0.50000000
   0.32255335  0.67744665  0.50000000
   0.66557066  0.33442934  0.00000000
   0.17913117  0.82086883  0.00000000
