 vasp.6.3.2 27Jun22 (build Jul  3 2023 11:46:21) complex                         
 executed on    LinuxNV_CrayMPICH date 2024.04.22  03:09:21
 running on    4 total cores
 distrk:  each k-point on    4 cores,    1 groups
 distr:  one band on NCORE=   1 cores,    4 groups


--------------------------------------------------------------------------------------------------------


 INCAR:
   ADDGRID = True
   ALGO = Normal
   EDIFF = 0.0034
   ENCUT = 520.0
   IBRION = -1
   ICHARG = 0
   ISIF = 3
   ISMEAR = -5
   ISPIN = 2
   KPOINT_BSE = -1 0 0 0
   LAECHG = True
   LASPH = True
   LCHARG = True
   LELF = True
   LORBIT = 11
   LREAL = Auto
   LVHAR = True
   LWAVE = False
   MAGMOM = 8*7.0 56*5.0 4*0.6
   NELM = 1000
   NSW = 0
   PREC = accurate
   SIGMA = 0.05

 POTCAR:    PAW_PBE Gd 23Dec2003                  
 POTCAR:    PAW_PBE Fe_pv 02Aug2007               
 POTCAR:    PAW_PBE B 06Sep2000                   
 POTCAR:    PAW_PBE Gd 23Dec2003                  
   SHA256 =  58854b40b4643190560b0e2b62d2ab46bea96585f82c6231a0f4f44b8c3188dc Gd/POTCAR             
   COPYR  = (c) Copyright 23Dec2003 Georg Kresse                                                    
   COPYR  = This file is part of the software VASP. Any use, copying, and all other rights are regul
   COPYR  = If you do not have a valid VASP license, you may not use, copy or distribute this file. 
   VRHFIN =Gd : [core=Xe4]                                                                          
   LEXCH  = PE                                                                                      
   EATOM  =  3047.6032 eV,  223.9925 Ry                                                             
                                                                                                    
   TITEL  = PAW_PBE Gd 23Dec2003                                                                    
   LULTRA =        F    use ultrasoft PP ?                                                          
   IUNSCR =        1    unscreen: 0-lin 1-nonlin 2-no                                               
   RPACOR =    2.300    partial core radius                                                         
   POMASS =  157.250; ZVAL   =   18.000    mass and valenz                                          
   RCORE  =    2.800    outmost cutoff radius                                                       
   RWIGS  =    2.800; RWIGS  =    1.482    wigner-seitz radius (au A)                               
   ENMAX  =  256.472; ENMIN  =  192.354 eV                                                          
   RCLOC  =    2.316    cutoff for local pot                                                        
   LCOR   =        T    correct aug charges                                                         
   LPAW   =        T    paw PP                                                                      
   EAUG   =  537.243                                                                                
   DEXC   =    0.000                                                                                
   RMAX   =    2.857    core radius for proj-oper                                                   
   RAUG   =    1.300    factor for augmentation sphere                                              
   RDEP   =    2.921    radius for radial grids                                                     
   RDEPT  =    2.247    core radius for aug-charge                                                  
                                                                                                    
   Atomic configuration                                                                             
   14 entries                                                                                       
     n  l   j            E        occ.                                                              
     1  0  0.50    -50087.2354   2.0000                                                             
     2  0  0.50     -8269.2182   2.0000                                                             
     2  1  1.50     -7357.3672   6.0000                                                             
     3  0  0.50     -1833.2681   2.0000                                                             
     3  1  1.50     -1550.9376   6.0000                                                             
     3  2  2.50     -1178.7204  10.0000                                                             
     4  0  0.50      -369.2978   2.0000                                                             
     4  1  1.50      -276.2601   6.0000                                                             
     4  2  2.50      -147.6611  10.0000                                                             
     5  0  0.50       -49.7260   2.0000                                                             
     6  0  0.50        -4.1254   2.0000                                                             
     5  1  1.50       -27.2538   6.0000                                                             
     5  2  2.50        -2.5337   1.0000                                                             
     4  3  2.50        -8.7140   7.0000                                                             
   Description                                                                                      
     l       E           TYP  RCUT    TYP  RCUT                                                     
     0    -49.7259557     23  2.400                                                                 
     0     -4.1254107     23  2.400                                                                 
     1    -27.2537518     23  2.400                                                                 
     1     20.4087390     23  2.400                                                                 
     2     -2.5337329     23  2.500                                                                 
     2     13.6058260     23  2.500                                                                 
     3     -8.7140389     23  2.800                                                                 
     3     -9.5240782     23  2.800                                                                 
  local pseudopotential read in
  partial core-charges read in
  partial kinetic energy density read in
  atomic valenz-charges read in
  non local Contribution for L=            0  read in
    real space projection operators read in
  non local Contribution for L=            0  read in
    real space projection operators read in
  non local Contribution for L=            1  read in
    real space projection operators read in
  non local Contribution for L=            1  read in
    real space projection operators read in
  non local Contribution for L=            2  read in
    real space projection operators read in
  non local Contribution for L=            2  read in
    real space projection operators read in
  non local Contribution for L=            3  read in
    real space projection operators read in
  non local Contribution for L=            3  read in
    real space projection operators read in
    PAW grid and wavefunctions read in
 
   number of l-projection  operators is LMAX  =            8
   number of lm-projection operators is LMMAX =           32
 
 POTCAR:    PAW_PBE Fe_pv 02Aug2007               
   SHA256 =  5d22e414b1f82158bf2c7ecb8b97b28fd0923e48cadc1c3bf74d524558f5dd32 Fe_pv/POTCAR          
   COPYR  = (c) Copyright 02Aug2007 Georg Kresse                                                    
   COPYR  = This file is part of the software VASP. Any use, copying, and all other rights are regul
   COPYR  = If you do not have a valid VASP license, you may not use, copy or distribute this file. 
   VRHFIN =Fe:  3pd7s1                                                                              
   LEXCH  = PE                                                                                      
   EATOM  =  2457.4239 eV,  180.6156 Ry                                                             
                                                                                                    
   TITEL  = PAW_PBE Fe_pv 02Aug2007                                                                 
   LULTRA =        F    use ultrasoft PP ?                                                          
   IUNSCR =        1    unscreen: 0-lin 1-nonlin 2-no                                               
   RPACOR =    1.750    partial core radius                                                         
   POMASS =   55.847; ZVAL   =   14.000    mass and valenz                                          
   RCORE  =    2.200    outmost cutoff radius                                                       
   RWIGS  =    2.200; RWIGS  =    1.164    wigner-seitz radius (au A)                               
   ENMAX  =  293.238; ENMIN  =  219.928 eV                                                          
   ICORE  =        3    local potential                                                             
   LCOR   =        T    correct aug charges                                                         
   LPAW   =        T    paw PP                                                                      
   EAUG   =  578.342                                                                                
   DEXC   =    0.000                                                                                
   RMAX   =    2.249    core radius for proj-oper                                                   
   RAUG   =    1.300    factor for augmentation sphere                                              
   RDEP   =    2.296    radius for radial grids                                                     
   RDEPT  =    1.766    core radius for aug-charge                                                  
                                                                                                    
   Atomic configuration                                                                             
    8 entries                                                                                       
     n  l   j            E        occ.                                                              
     1  0  0.50     -6993.8440   2.0000                                                             
     2  0  0.50      -814.6047   2.0000                                                             
     2  1  1.50      -693.3689   6.0000                                                             
     3  0  0.50       -89.4732   2.0000                                                             
     3  1  1.50       -55.6373   6.0000                                                             
     3  2  2.50        -3.8151   7.0000                                                             
     4  0  0.50        -4.2551   1.0000                                                             
     4  3  2.50        -1.3606   0.0000                                                             
   Description                                                                                      
     l       E           TYP  RCUT    TYP  RCUT                                                     
     1    -55.6372668     23  2.000                                                                 
     1     -5.4423304     23  2.000                                                                 
     2     -3.8151096     23  2.200                                                                 
     2     -5.1756922     23  2.200                                                                 
     0     -4.2550951     23  2.200                                                                 
     0     27.2116520     23  2.200                                                                 
     3     -1.3605826     23  2.200                                                                 
  local pseudopotential read in
  partial core-charges read in
  partial kinetic energy density read in
  atomic valenz-charges read in
  non local Contribution for L=            1  read in
    real space projection operators read in
  non local Contribution for L=            1  read in
    real space projection operators read in
  non local Contribution for L=            2  read in
    real space projection operators read in
  non local Contribution for L=            2  read in
    real space projection operators read in
  non local Contribution for L=            0  read in
    real space projection operators read in
  non local Contribution for L=            0  read in
    real space projection operators read in
    PAW grid and wavefunctions read in
 
   number of l-projection  operators is LMAX  =            6
   number of lm-projection operators is LMMAX =           18
 
 POTCAR:    PAW_PBE B 06Sep2000                   
   SHA256 =  a32ced30f5ae56fd4d10b4325ff17eb3e4e38ee0f4288bc219fb012fddfa6e97 B/POTCAR              
   COPYR  = (c) Copyright 06Sep2000 Georg Kresse                                                    
   COPYR  = This file is part of the software VASP. Any use, copying, and all other rights are regul
   COPYR  = If you do not have a valid VASP license, you may not use, copy or distribute this file. 
   VRHFIN =B: s2p1                                                                                  
   LEXCH  = PE                                                                                      
   EATOM  =    71.1703 eV,    5.2309 Ry                                                             
                                                                                                    
   TITEL  = PAW_PBE B 06Sep2000                                                                     
   LULTRA =        F    use ultrasoft PP ?                                                          
   IUNSCR =        1    unscreen: 0-lin 1-nonlin 2-no                                               
   RPACOR =    1.200    partial core radius                                                         
   POMASS =   10.811; ZVAL   =    3.000    mass and valenz                                          
   RCORE  =    1.700    outmost cutoff radius                                                       
   RWIGS  =    1.710; RWIGS  =    0.905    wigner-seitz radius (au A)                               
   ENMAX  =  318.614; ENMIN  =  238.960 eV                                                          
   ICORE  =        2    local potential                                                             
   LCOR   =        T    correct aug charges                                                         
   LPAW   =        T    paw PP                                                                      
   EAUG   =  535.514                                                                                
   DEXC   =    0.000                                                                                
   RMAX   =    1.732    core radius for proj-oper                                                   
   RAUG   =    1.300    factor for augmentation sphere                                              
   RDEP   =    1.757    radius for radial grids                                                     
   RDEPT  =    1.436    core radius for aug-charge                                                  
                                                                                                    
   Atomic configuration                                                                             
    4 entries                                                                                       
     n  l   j            E        occ.                                                              
     1  0  0.50      -180.5896   2.0000                                                             
     2  0  0.50        -9.4431   2.0000                                                             
     2  1  0.50        -3.6068   1.0000                                                             
     3  2  1.50        -4.0817   0.0000                                                             
   Description                                                                                      
     l       E           TYP  RCUT    TYP  RCUT                                                     
     0     -9.4430752     23  1.500                                                                 
     0      0.8675899     23  1.500                                                                 
     1     -3.6067955     23  1.700                                                                 
     1      6.1086146     23  1.700                                                                 
     2     -4.0817478      7  1.700                                                                 
  local pseudopotential read in
  partial core-charges read in
  partial kinetic energy density read in
  atomic valenz-charges read in
  non local Contribution for L=            0  read in
    real space projection operators read in
  non local Contribution for L=            0  read in
    real space projection operators read in
  non local Contribution for L=            1  read in
    real space projection operators read in
  non local Contribution for L=            1  read in
    real space projection operators read in
    PAW grid and wavefunctions read in
 
   number of l-projection  operators is LMAX  =            4
   number of lm-projection operators is LMMAX =            8
 
 Optimization of the real space projectors (new method)

 maximal supplied QI-value         = 13.42
 optimisation between [QCUT,QGAM] = [ 11.67, 23.35] = [ 38.16,152.62] Ry 
 Optimized for a Real-space Cutoff    1.63 Angstroem

   l    n(q)    QCUT    max X(q) W(low)/X(q) W(high)/X(q)  e(spline) 
   0     11    11.673    10.501    0.14E-04    0.17E-05    0.21E-07
   0     11    11.673     9.148    0.21E-04    0.32E-05    0.45E-07
   1     11    11.673     4.035    0.33E-05    0.11E-04    0.84E-07
   1     11    11.673     4.388    0.11E-04    0.47E-04    0.34E-06
   2     10    11.673    20.656    0.12E-04    0.28E-04    0.54E-06
   2     10    11.673    12.651    0.11E-04    0.26E-04    0.51E-06
   3     10    11.673    61.921    0.19E-03    0.22E-03    0.23E-06
   3     10    11.673    48.328    0.20E-03    0.23E-03    0.23E-06
 Optimization of the real space projectors (new method)

 maximal supplied QI-value         = 17.01
 optimisation between [QCUT,QGAM] = [ 11.57, 23.30] = [ 37.45,152.03] Ry 
 Optimized for a Real-space Cutoff    1.45 Angstroem

   l    n(q)    QCUT    max X(q) W(low)/X(q) W(high)/X(q)  e(spline) 
   1     10    11.565     4.267    0.91E-04    0.15E-03    0.13E-06
   1     10    11.565     5.750    0.14E-03    0.22E-03    0.20E-06
   2      9    11.565    53.656    0.13E-03    0.57E-04    0.16E-06
   2      9    11.565    49.521    0.13E-03    0.59E-04    0.16E-06
   0     10    11.565    31.246    0.61E-04    0.74E-05    0.89E-07
   0     10    11.565    12.201    0.44E-04    0.68E-05    0.74E-07
 Optimization of the real space projectors (new method)

 maximal supplied QI-value         = 22.11
 optimisation between [QCUT,QGAM] = [ 11.50, 23.22] = [ 37.02,150.92] Ry 
 Optimized for a Real-space Cutoff    1.21 Angstroem

   l    n(q)    QCUT    max X(q) W(low)/X(q) W(high)/X(q)  e(spline) 
   0      8    11.497    53.033    0.18E-03    0.30E-03    0.10E-06
   0      8    11.497    34.740    0.17E-03    0.29E-03    0.10E-06
   1      8    11.497    30.949    0.20E-03    0.12E-03    0.21E-06
   1      8    11.497    19.518    0.18E-03    0.11E-03    0.19E-06
  PAW_PBE Gd 23Dec2003                  :
 energy of atom  1       EATOM=-3047.6032
 kinetic energy error for atom=    0.0019 (will be added to EATOM!!)
  PAW_PBE Fe_pv 02Aug2007               :
 energy of atom  2       EATOM=-2457.4239
 kinetic energy error for atom=    0.0062 (will be added to EATOM!!)
  PAW_PBE B 06Sep2000                   :
 energy of atom  3       EATOM=  -71.1703
 kinetic energy error for atom=    0.0011 (will be added to EATOM!!)
 
 
 POSCAR: Gd8 Fe56 B4
  positions in direct lattice
  No initial velocities read in
 exchange correlation table for  LEXCH =        8
   RHO(1)=    0.500       N(1)  =     2000
   RHO(2)=  100.500       N(2)  =     4000

 VTST: version 4.2, (08/11/21)

 CHAIN: initializing optimizer
 
 OPT: Using VASP Dynamics algorithm
 CHAIN: Read ICHAIN             0
 
 POSCAR: Gd8 Fe56 B4
  positions in direct lattice
  No initial velocities read in
 


--------------------------------------------------------------------------------------------------------


 ion  position               nearest neighbor table
   1  0.235  0.765  0.500-  33 3.01  38 3.01  42 3.01  45 3.01  17 3.01  22 3.01  49 3.05  54 3.05
                            58 3.05  61 3.05   9 3.09  11 3.09
   2  0.765  0.235  0.500-  34 3.01  37 3.01  41 3.01  46 3.01  18 3.01  21 3.01  50 3.05  53 3.05
                            57 3.05  62 3.05   9 3.09  11 3.09
   3  0.265  0.265  0.000-  35 3.01  40 3.01  43 3.01  48 3.01  19 3.01  24 3.01  51 3.05  56 3.05
                            59 3.05  64 3.05  10 3.09  12 3.09
   4  0.735  0.735  0.000-  36 3.01  39 3.01  44 3.01  47 3.01  20 3.01  23 3.01  52 3.05  55 3.05
                            60 3.05  63 3.05  10 3.09  12 3.09
   5  0.643  0.643  0.500-  65 2.86  54 3.05  57 3.05  62 3.05  49 3.05  23 3.08  20 3.08   6 3.54

   6  0.357  0.357  0.500-  66 2.86  53 3.05  58 3.05  61 3.05  50 3.05  24 3.08  19 3.08   5 3.54

   7  0.857  0.143  0.000-  67 2.86  56 3.05  60 3.05  63 3.05  51 3.05  21 3.08  18 3.08   8 3.54

   8  0.143  0.857  0.000-  68 2.86  55 3.05  59 3.05  64 3.05  52 3.05  22 3.08  17 3.08   7 3.54

   9  0.000  0.500  0.500-  33 2.45  34 2.45  37 2.45  38 2.45  49 2.55  50 2.55  53 2.55  54 2.55
                             1 3.09   2 3.09
  10  0.500  0.000  0.000-  35 2.45  36 2.45  39 2.45  40 2.45  51 2.55  52 2.55  55 2.55  56 2.55
                             3 3.09   4 3.09
  11  0.500  0.000  0.500-  41 2.45  42 2.45  45 2.45  46 2.45  57 2.55  58 2.55  61 2.55  62 2.55
                             1 3.09   2 3.09
  12  0.000  0.500  0.000-  43 2.45  44 2.45  47 2.45  48 2.45  59 2.55  60 2.55  63 2.55  64 2.55
                             3 3.09   4 3.09
  13  0.500  0.500  0.115-  67 2.07  68 2.07  63 2.47  64 2.47  55 2.47  56 2.47  25 2.50  26 2.50
                            15 2.75  23 2.76  24 2.76
  14  0.000  0.000  0.615-  65 2.07  66 2.07  61 2.47  62 2.47  53 2.47  54 2.47  27 2.50  28 2.50
                            16 2.75  21 2.76  22 2.76
  15  0.500  0.500  0.885-  67 2.07  68 2.07  59 2.47  60 2.47  51 2.47  52 2.47  29 2.50  30 2.50
                            13 2.75  19 2.76  20 2.76
  16  0.000  0.000  0.385-  65 2.07  66 2.07  57 2.47  58 2.47  49 2.47  50 2.47  31 2.50  32 2.50
                            14 2.75  17 2.76  18 2.76
  17  0.184  0.816  0.254-  33 2.62  42 2.62  40 2.63  47 2.63  31 2.64  32 2.64  55 2.69  64 2.69
                            58 2.72  49 2.72  25 2.76  16 2.76   1 3.01   8 3.08
  18  0.816  0.184  0.254-  34 2.62  41 2.62  39 2.63  48 2.63  31 2.64  32 2.64  56 2.69  63 2.69
                            57 2.72  50 2.72  26 2.76  16 2.76   2 3.01   7 3.08
  19  0.316  0.316  0.754-  35 2.62  43 2.62  38 2.63  46 2.63  29 2.64  30 2.64  53 2.69  61 2.69
                            59 2.72  51 2.72  27 2.76  15 2.76   3 3.01   6 3.08
  20  0.684  0.684  0.754-  36 2.62  44 2.62  37 2.63  45 2.63  29 2.64  30 2.64  54 2.69  62 2.69
                            60 2.72  52 2.72  28 2.76  15 2.76   4 3.01   5 3.08
  21  0.816  0.184  0.746-  37 2.62  46 2.62  43 2.63  36 2.63  27 2.64  28 2.64  51 2.69  60 2.69
                            53 2.72  62 2.72  29 2.76  14 2.76   2 3.01   7 3.08
  22  0.184  0.816  0.746-  38 2.62  45 2.62  44 2.63  35 2.63  27 2.64  28 2.64  52 2.69  59 2.69
                            54 2.72  61 2.72  30 2.76  14 2.76   1 3.01   8 3.08
  23  0.684  0.684  0.246-  39 2.62  47 2.62  42 2.63  34 2.63  25 2.64  26 2.64  49 2.69  57 2.69
                            55 2.72  63 2.72  31 2.76  13 2.76   4 3.01   5 3.08
  24  0.316  0.316  0.246-  40 2.62  48 2.62  41 2.63  33 2.63  25 2.64  26 2.64  50 2.69  58 2.69
                            56 2.72  64 2.72  32 2.76  13 2.76   3 3.01   6 3.08
  25  0.403  0.597  0.298-  33 2.37  42 2.37  26 2.40  13 2.50  55 2.59  64 2.59  24 2.64  23 2.64
                            17 2.76
  26  0.597  0.403  0.298-  34 2.37  41 2.37  25 2.40  13 2.50  56 2.59  63 2.59  24 2.64  23 2.64
                            18 2.76
  27  0.097  0.097  0.798-  35 2.37  43 2.37  28 2.40  14 2.50  53 2.59  61 2.59  22 2.64  21 2.64
                            19 2.76
  28  0.903  0.903  0.798-  36 2.37  44 2.37  27 2.40  14 2.50  54 2.59  62 2.59  22 2.64  21 2.64
                            20 2.76
  29  0.597  0.403  0.702-  37 2.37  46 2.37  30 2.40  15 2.50  51 2.59  60 2.59  20 2.64  19 2.64
                            21 2.76
  30  0.403  0.597  0.702-  38 2.37  45 2.37  29 2.40  15 2.50  52 2.59  59 2.59  20 2.64  19 2.64
                            22 2.76
  31  0.903  0.903  0.202-  39 2.37  47 2.37  32 2.40  16 2.50  49 2.59  57 2.59  18 2.64  17 2.64
                            23 2.76
  32  0.097  0.097  0.202-  40 2.37  48 2.37  31 2.40  16 2.50  50 2.59  58 2.59  18 2.64  17 2.64
                            24 2.76
  33  0.141  0.536  0.325-  25 2.37  50 2.45   9 2.45  64 2.50  49 2.52  47 2.54  48 2.54  34 2.55
                            17 2.62  24 2.63   1 3.01
  34  0.859  0.464  0.325-  26 2.37  49 2.45   9 2.45  63 2.50  50 2.52  48 2.54  47 2.54  33 2.55
                            18 2.62  23 2.63   2 3.01
  35  0.359  0.036  0.825-  27 2.37  52 2.45  10 2.45  61 2.50  51 2.52  46 2.54  45 2.54  36 2.55
                            19 2.62  22 2.63   3 3.01
  36  0.641  0.964  0.825-  28 2.37  51 2.45  10 2.45  62 2.50  52 2.52  45 2.54  46 2.54  35 2.55
                            20 2.62  21 2.63   4 3.01
  37  0.859  0.464  0.675-  29 2.37  54 2.45   9 2.45  60 2.50  53 2.52  43 2.54  44 2.54  38 2.55
                            21 2.62  20 2.63   2 3.01
  38  0.141  0.536  0.675-  30 2.37  53 2.45   9 2.45  59 2.50  54 2.52  44 2.54  43 2.54  37 2.55
                            22 2.62  19 2.63   1 3.01
  39  0.641  0.964  0.175-  31 2.37  56 2.45  10 2.45  57 2.50  55 2.52  42 2.54  41 2.54  40 2.55
                            23 2.62  18 2.63   4 3.01
  40  0.359  0.036  0.175-  32 2.37  55 2.45  10 2.45  58 2.50  56 2.52  41 2.54  42 2.54  39 2.55
                            24 2.62  17 2.63   3 3.01
  41  0.536  0.141  0.325-  26 2.37  58 2.45  11 2.45  56 2.50  57 2.52  40 2.54  39 2.54  42 2.55
                            18 2.62  24 2.63   2 3.01
  42  0.464  0.859  0.325-  25 2.37  57 2.45  11 2.45  55 2.50  58 2.52  39 2.54  40 2.54  41 2.55
                            17 2.62  23 2.63   1 3.01
  43  0.036  0.359  0.825-  27 2.37  60 2.45  12 2.45  53 2.50  59 2.52  37 2.54  38 2.54  44 2.55
                            19 2.62  21 2.63   3 3.01
  44  0.964  0.641  0.825-  28 2.37  59 2.45  12 2.45  54 2.50  60 2.52  38 2.54  37 2.54  43 2.55
                            20 2.62  22 2.63   4 3.01
  45  0.464  0.859  0.675-  30 2.37  62 2.45  11 2.45  52 2.50  61 2.52  36 2.54  35 2.54  46 2.55
                            22 2.62  20 2.63   1 3.01
  46  0.536  0.141  0.675-  29 2.37  61 2.45  11 2.45  51 2.50  62 2.52  35 2.54  36 2.54  45 2.55
                            21 2.62  19 2.63   2 3.01
  47  0.964  0.641  0.175-  31 2.37  64 2.45  12 2.45  49 2.50  63 2.52  33 2.54  34 2.54  48 2.55
                            23 2.62  17 2.63   4 3.01
  48  0.036  0.359  0.175-  32 2.37  63 2.45  12 2.45  50 2.50  64 2.52  34 2.54  33 2.54  47 2.55
                            24 2.62  18 2.63   3 3.01
  49  0.934  0.725  0.374-  65 2.06  34 2.45  16 2.47  47 2.50  33 2.52   9 2.55  57 2.58  31 2.59
                            23 2.69  17 2.72   5 3.05   1 3.05
  50  0.066  0.275  0.374-  66 2.06  33 2.45  16 2.47  48 2.50  34 2.52   9 2.55  58 2.58  32 2.59
                            24 2.69  18 2.72   6 3.05   2 3.05
  51  0.566  0.225  0.874-  67 2.06  36 2.45  15 2.47  46 2.50  35 2.52  10 2.55  60 2.58  29 2.59
                            21 2.69  19 2.72   7 3.05   3 3.05
  52  0.434  0.775  0.874-  68 2.06  35 2.45  15 2.47  45 2.50  36 2.52  10 2.55  59 2.58  30 2.59
                            22 2.69  20 2.72   8 3.05   4 3.05
  53  0.066  0.275  0.626-  66 2.06  38 2.45  14 2.47  43 2.50  37 2.52   9 2.55  61 2.58  27 2.59
                            19 2.69  21 2.72   6 3.05   2 3.05
  54  0.934  0.725  0.626-  65 2.06  37 2.45  14 2.47  44 2.50  38 2.52   9 2.55  62 2.58  28 2.59
                            20 2.69  22 2.72   5 3.05   1 3.05
  55  0.434  0.775  0.126-  68 2.06  40 2.45  13 2.47  42 2.50  39 2.52  10 2.55  64 2.58  25 2.59
                            17 2.69  23 2.72   8 3.05   4 3.05
  56  0.566  0.225  0.126-  67 2.06  39 2.45  13 2.47  41 2.50  40 2.52  10 2.55  63 2.58  26 2.59
                            18 2.69  24 2.72   7 3.05   3 3.05
  57  0.725  0.934  0.374-  65 2.06  42 2.45  16 2.47  39 2.50  41 2.52  11 2.55  49 2.58  31 2.59
                            23 2.69  18 2.72   5 3.05   2 3.05
  58  0.275  0.066  0.374-  66 2.06  41 2.45  16 2.47  40 2.50  42 2.52  11 2.55  50 2.58  32 2.59
                            24 2.69  17 2.72   6 3.05   1 3.05
  59  0.225  0.566  0.874-  68 2.06  44 2.45  15 2.47  38 2.50  43 2.52  12 2.55  52 2.58  30 2.59
                            22 2.69  19 2.72   8 3.05   3 3.05
  60  0.775  0.434  0.874-  67 2.06  43 2.45  15 2.47  37 2.50  44 2.52  12 2.55  51 2.58  29 2.59
                            21 2.69  20 2.72   7 3.05   4 3.05
  61  0.275  0.066  0.626-  66 2.06  46 2.45  14 2.47  35 2.50  45 2.52  11 2.55  53 2.58  27 2.59
                            19 2.69  22 2.72   6 3.05   1 3.05
  62  0.725  0.934  0.626-  65 2.06  45 2.45  14 2.47  36 2.50  46 2.52  11 2.55  54 2.58  28 2.59
                            20 2.69  21 2.72   5 3.05   2 3.05
  63  0.775  0.434  0.126-  67 2.06  48 2.45  13 2.47  34 2.50  47 2.52  12 2.55  56 2.58  26 2.59
                            18 2.69  23 2.72   7 3.05   4 3.05
  64  0.225  0.566  0.126-  68 2.06  47 2.45  13 2.47  33 2.50  48 2.52  12 2.55  55 2.58  25 2.59
                            17 2.69  24 2.72   8 3.05   3 3.05
  65  0.875  0.875  0.500-  49 2.06  54 2.06  57 2.06  62 2.06  14 2.07  16 2.07   5 2.86
  66  0.125  0.125  0.500-  50 2.06  53 2.06  58 2.06  61 2.06  14 2.07  16 2.07   6 2.86
  67  0.625  0.375  0.000-  51 2.06  56 2.06  60 2.06  63 2.06  13 2.07  15 2.07   7 2.86
  68  0.375  0.625  0.000-  52 2.06  55 2.06  59 2.06  64 2.06  13 2.07  15 2.07   8 2.86
 
  LATTYP: Found a simple tetragonal cell.
 ALAT       =     8.7336820000
 C/A-ratio  =     1.3690303815
  
  Lattice vectors:
  
 A1 = (   8.7336820000,   0.0000000000,   0.0000000000)
 A2 = (   0.0000000000,   8.7336820000,   0.0000000000)
 A3 = (   0.0000000000,   0.0000000000,  11.9566760000)


Analysis of symmetry for initial positions (statically):
=====================================================================
 Subroutine PRICEL returns:
 Original cell was already a primitive cell.
 

 Routine SETGRP: Setting up the symmetry group for a 
 simple tetragonal supercell.


 Subroutine GETGRP returns: Found 16 space group operations
 (whereof  8 operations were pure point group operations)
 out of a pool of 16 trial point group operations.


The static configuration has the point symmetry D_2h.
 The point group associated with its full space group is D_4h.


Analysis of symmetry for dynamics (positions and initial velocities):
=====================================================================
 Subroutine PRICEL returns:
 Original cell was already a primitive cell.
 

 Routine SETGRP: Setting up the symmetry group for a 
 simple tetragonal supercell.


 Subroutine GETGRP returns: Found 16 space group operations
 (whereof  8 operations were pure point group operations)
 out of a pool of 16 trial point group operations.


The dynamic configuration has the point symmetry D_2h.
 The point group associated with its full space group is D_4h.


Analysis of structural, dynamic, and magnetic symmetry:
=====================================================================
 Subroutine PRICEL returns:
 Original cell was already a primitive cell.
 

 Routine SETGRP: Setting up the symmetry group for a 
 simple tetragonal supercell.


 Subroutine GETGRP returns: Found 16 space group operations
 (whereof  8 operations were pure point group operations)
 out of a pool of 16 trial point group operations.


The overall configuration has the point symmetry D_2h.
 The point group associated with its full space group is D_4h.


 Subroutine INISYM returns: Found 16 space group operations
 (whereof  8 operations are pure point group operations),
 and found     1 'primitive' translations


----------------------------------------------------------------------------------------

                                     Primitive cell                                     

  volume of cell :     912.0218

  direct lattice vectors                    reciprocal lattice vectors
     8.733682000  0.000000000  0.000000000     0.114499246  0.000000000  0.000000000
     0.000000000  8.733682000  0.000000000     0.000000000  0.114499246  0.000000000
     0.000000000  0.000000000 11.956676000     0.000000000  0.000000000  0.083635285

  length of vectors
     8.733682000  8.733682000 11.956676000     0.114499246  0.114499246  0.083635285

  position of ions in fractional coordinates (direct lattice)
     0.235483000  0.764517000  0.500000000
     0.764517000  0.235483000  0.500000000
     0.264517000  0.264517000  0.000000000
     0.735483000  0.735483000  0.000000000
     0.643167000  0.643167000  0.500000000
     0.356833000  0.356833000  0.500000000
     0.856833000  0.143167000  0.000000000
     0.143167000  0.856833000  0.000000000
     0.000000000  0.500000000  0.500000000
     0.500000000  0.000000000  0.000000000
     0.500000000  0.000000000  0.500000000
     0.000000000  0.500000000  0.000000000
     0.500000000  0.500000000  0.114836000
     0.000000000  0.000000000  0.614836000
     0.500000000  0.500000000  0.885164000
     0.000000000  0.000000000  0.385164000
     0.183598000  0.816402000  0.253901000
     0.816402000  0.183598000  0.253901000
     0.316402000  0.316402000  0.753901000
     0.683598000  0.683598000  0.753901000
     0.816402000  0.183598000  0.746099000
     0.183598000  0.816402000  0.746099000
     0.683598000  0.683598000  0.246099000
     0.316402000  0.316402000  0.246099000
     0.402689000  0.597311000  0.298235000
     0.597311000  0.402689000  0.298235000
     0.097311000  0.097311000  0.798235000
     0.902689000  0.902689000  0.798235000
     0.597311000  0.402689000  0.701765000
     0.402689000  0.597311000  0.701765000
     0.902689000  0.902689000  0.201765000
     0.097311000  0.097311000  0.201765000
     0.141294000  0.536188000  0.324753000
     0.858706000  0.463812000  0.324753000
     0.358706000  0.036188000  0.824753000
     0.641294000  0.963812000  0.824753000
     0.858706000  0.463812000  0.675247000
     0.141294000  0.536188000  0.675247000
     0.641294000  0.963812000  0.175247000
     0.358706000  0.036188000  0.175247000
     0.536188000  0.141294000  0.324753000
     0.463812000  0.858706000  0.324753000
     0.036188000  0.358706000  0.824753000
     0.963812000  0.641294000  0.824753000
     0.463812000  0.858706000  0.675247000
     0.536188000  0.141294000  0.675247000
     0.963812000  0.641294000  0.175247000
     0.036188000  0.358706000  0.175247000
     0.934499000  0.725317000  0.373617000
     0.065501000  0.274683000  0.373617000
     0.565501000  0.225317000  0.873617000
     0.434499000  0.774683000  0.873617000
     0.065501000  0.274683000  0.626383000
     0.934499000  0.725317000  0.626383000
     0.434499000  0.774683000  0.126383000
     0.565501000  0.225317000  0.126383000
     0.725317000  0.934499000  0.373617000
     0.274683000  0.065501000  0.373617000
     0.225317000  0.565501000  0.873617000
     0.774683000  0.434499000  0.873617000
     0.274683000  0.065501000  0.626383000
     0.725317000  0.934499000  0.626383000
     0.774683000  0.434499000  0.126383000
     0.225317000  0.565501000  0.126383000
     0.874583000  0.874583000  0.500000000
     0.125417000  0.125417000  0.500000000
     0.625417000  0.374583000  0.000000000
     0.374583000  0.625417000  0.000000000

  ion indices of the primitive-cell ions
   primitive index   ion index
                 1           1
                 2           2
                 3           3
                 4           4
                 5           5
                 6           6
                 7           7
                 8           8
                 9           9
                10          10
                11          11
                12          12
                13          13
                14          14
                15          15
                16          16
                17          17
                18          18
                19          19
                20          20
                21          21
                22          22
                23          23
                24          24
                25          25
                26          26
                27          27
                28          28
                29          29
                30          30
                31          31
                32          32
                33          33
                34          34
                35          35
                36          36
                37          37
                38          38
                39          39
                40          40
                41          41
                42          42
                43          43
                44          44
                45          45
                46          46
                47          47
                48          48
                49          49
                50          50
                51          51
                52          52
                53          53
                54          54
                55          55
                56          56
                57          57
                58          58
                59          59
                60          60
                61          61
                62          62
                63          63
                64          64
                65          65
                66          66
                67          67
                68          68

----------------------------------------------------------------------------------------

 
 
 KPOINTS: Kpoints from vasprun.xml                

Automatic generation of k-mesh.
 Grid dimensions read from file:
 generate k-points for:    3    3    2

 Generating k-lattice:

  Cartesian coordinates                     Fractional coordinates (reciprocal lattice)
     0.038166415  0.000000000  0.000000000     0.333333333  0.000000000  0.000000000
     0.000000000  0.038166415  0.000000000     0.000000000  0.333333333  0.000000000
     0.000000000  0.000000000  0.041817642     0.000000000  0.000000000  0.500000000

  Length of vectors
     0.038166415  0.038166415  0.041817642

  Shift w.r.t. Gamma in fractional coordinates (k-lattice)
     0.000000000  0.000000000  0.000000000

 TETIRR: Found     25 inequivalent tetrahedra from      108
 
 Subroutine IBZKPT returns following result:
 ===========================================
 
 Found      6 irreducible k-points:
 
 Following reciprocal coordinates:
            Coordinates               Weight
  0.000000  0.000000  0.000000      1.000000
  0.333333  0.000000  0.000000      4.000000
  0.333333  0.333333  0.000000      4.000000
  0.000000  0.000000  0.500000      1.000000
  0.333333  0.000000  0.500000      4.000000
  0.333333  0.333333  0.500000      4.000000
 
 Following cartesian coordinates:
            Coordinates               Weight
  0.000000  0.000000  0.000000      1.000000
  0.038166  0.000000  0.000000      4.000000
  0.038166  0.038166  0.000000      4.000000
  0.000000  0.000000  0.041818      1.000000
  0.038166  0.000000  0.041818      4.000000
  0.038166  0.038166  0.041818      4.000000
 


--------------------------------------------------------------------------------------------------------




 Dimension of arrays:
   k-points           NKPTS =      6   k-points in BZ     NKDIM =      6   number of bands    NBANDS=    736
   number of dos      NEDOS =    301   number of ions     NIONS =     68
   non local maximal  LDIM  =      8   non local SUM 2l+1 LMDIM =     32
   total plane-waves  NPLWV = 441000
   max r-space proj   IRMAX =   8776   max aug-charges    IRDMAX= 229009
   dimension x,y,z NGX =    70 NGY =   70 NGZ =   90
   dimension x,y,z NGXF=   140 NGYF=  140 NGZF=  180
   support grid    NGXF=   280 NGYF=  280 NGZF=  360
   ions per type =               8  56   4
   NGX,Y,Z   is equivalent  to a cutoff of  13.32, 13.32, 12.51 a.u.
   NGXF,Y,Z  is equivalent  to a cutoff of  26.65, 26.65, 25.03 a.u.

 SYSTEM =  unknown system                          
 POSCAR =  Gd8 Fe56 B4                             

 Startparameter for this run:
   NWRITE =      2    write-flag & timer
   PREC   = accura    normal or accurate (medium, high low for compatibility)
   ISTART =      0    job   : 0-new  1-cont  2-samecut
   ICHARG =      0    charge: 1-file 2-atom 10-const
   ISPIN  =      2    spin polarized calculation?
   LNONCOLLINEAR =      F non collinear calculations
   LSORBIT =      F    spin-orbit coupling
   INIWAV =      1    electr: 0-lowe 1-rand  2-diag
   LASPH  =      T    aspherical Exc in radial PAW
 Electronic Relaxation 1
   ENCUT  =  520.0 eV  38.22 Ry    6.18 a.u.  16.24 16.24 22.23*2*pi/ulx,y,z
   ENINI  =  520.0     initial cutoff
   ENAUG  =  578.3 eV  augmentation charge cutoff
   NELM   =   1000;   NELMIN=  2; NELMDL= -5     # of ELM steps 
   EDIFF  = 0.3E-02   stopping-criterion for ELM
   LREAL  =      T    real-space projection
   NLSPLINE    = F    spline interpolate recip. space projectors
   LCOMPAT=      F    compatible to vasp.4.4
   GGA_COMPAT  = T    GGA compatible to vasp.4.4-vasp.4.6
   LMAXPAW     = -100 max onsite density
   LMAXMIX     =    2 max onsite mixed and CHGCAR
   VOSKOWN=      0    Vosko Wilk Nusair interpolation
   ROPT   =   -0.00025  -0.00025  -0.00025
 Ionic relaxation
   EDIFFG = 0.3E-01   stopping-criterion for IOM
   NSW    =      0    number of steps for IOM
   NBLOCK =      1;   KBLOCK =      1    inner block; outer block 
   IBRION =     -1    ionic relax: 0-MD 1-quasi-New 2-CG
   NFREE  =      0    steps in history (QN), initial steepest desc. (CG)
   ISIF   =      3    stress and relaxation
   IWAVPR =     10    prediction:  0-non 1-charg 2-wave 3-comb
   ISYM   =      2    0-nonsym 1-usesym 2-fastsym
   LCORR  =      T    Harris-Foulkes like correction to forces

   POTIM  = 0.5000    time-step for ionic-motion
   TEIN   =    0.0    initial temperature
   TEBEG  =    0.0;   TEEND  =   0.0 temperature during run
   SMASS  =  -3.00    Nose mass-parameter (am)
   estimated Nose-frequenzy (Omega)   =  0.10E-29 period in steps = 0.13E+47 mass=  -0.174E-26a.u.
   SCALEE = 1.0000    scale energy and forces
   NPACO  =    256;   APACO  = 10.0  distance and # of slots for P.C.
   PSTRESS=    0.0 pullay stress

  Mass of Ions in am
   POMASS = 157.25 55.85 10.81
  Ionic Valenz
   ZVAL   =  18.00 14.00  3.00
  Atomic Wigner-Seitz radii
   RWIGS  =  -1.00 -1.00 -1.00
  virtual crystal weights 
   VCA    =   1.00  1.00  1.00
   NELECT =     940.0000    total number of electrons
   NUPDOWN=      -1.0000    fix difference up-down

 DOS related values:
   EMIN   =  10.00;   EMAX   =-10.00  energy-range for DOS
   EFERMI =   0.00
   ISMEAR =    -5;   SIGMA  =   0.05  broadening in eV -4-tet -1-fermi 0-gaus

 Electronic relaxation 2 (details)
   IALGO  =     38    algorithm
   LDIAG  =      T    sub-space diagonalisation (order eigenvalues)
   LSUBROT=      F    optimize rotation matrix (better conditioning)
   TURBO    =      0    0=normal 1=particle mesh
   IRESTART =      0    0=no restart 2=restart with 2 vectors
   NREBOOT  =      0    no. of reboots
   NMIN     =      0    reboot dimension
   EREF     =   0.00    reference energy to select bands
   IMIX   =      4    mixing-type and parameters
     AMIX     =   0.40;   BMIX     =  1.00
     AMIX_MAG =   1.60;   BMIX_MAG =  1.00
     AMIN     =   0.10
     WC   =   100.;   INIMIX=   1;  MIXPRE=   1;  MAXMIX= -45

 Intra band minimization:
   WEIMIN = 0.0000     energy-eigenvalue tresh-hold
   EBREAK =  0.12E-05  absolut break condition
   DEPER  =   0.30     relativ break condition  

   TIME   =   0.40     timestep for ELM

  volume/ion in A,a.u.               =      13.41        90.51
  Fermi-wavevector in a.u.,A,eV,Ry     =   1.653671  3.124985 37.206859  2.734627
  Thomas-Fermi vector in A             =   2.742069
 
 Write flags
   LWAVE        =      F    write WAVECAR
   LDOWNSAMPLE  =      F    k-point downsampling of WAVECAR
   LCHARG       =      T    write CHGCAR
   LVTOT        =      F    write LOCPOT, total local potential
   LVHAR        =      T    write LOCPOT, Hartree potential only
   LELF         =      T    write electronic localiz. function (ELF)
   LORBIT       =     11    0 simple, 1 ext, 2 COOP (PROOUT), +10 PAW based schemes


 Dipole corrections
   LMONO  =      F    monopole corrections only (constant potential shift)
   LDIPOL =      F    correct potential (dipole corrections)
   IDIPOL =      0    1-x, 2-y, 3-z, 4-all directions 
   EPSILON=  1.0000000 bulk dielectric constant

 Exchange correlation treatment:
   GGA     =    --    GGA type
   LEXCH   =     8    internal setting for exchange type
   LIBXC   =     F    Libxc                    
   VOSKOWN =     0    Vosko Wilk Nusair interpolation
   LHFCALC =     F    Hartree Fock is set to
   LHFONE  =     F    Hartree Fock one center treatment
   AEXX    =    0.0000 exact exchange contribution

 Linear response parameters
   LEPSILON=     F    determine dielectric tensor
   LRPA    =     F    only Hartree local field effects (RPA)
   LNABLA  =     F    use nabla operator in PAW spheres
   LVEL    =     F    velocity operator in full k-point grid
   CSHIFT  =0.1000    complex shift for real part using Kramers Kronig
   OMEGAMAX=  -1.0    maximum frequency
   DEG_THRESHOLD= 0.2000000E-02 threshold for treating states as degnerate
   RTIME   =   -0.100 relaxation time in fs
  (WPLASMAI=    0.000 imaginary part of plasma frequency in eV, 0.658/RTIME)
   DFIELD  = 0.0000000 0.0000000 0.0000000 field for delta impulse in time
 
  Optional k-point grid parameters
   LKPOINTS_OPT  =     F    use optional k-point grid
   KPOINTS_OPT_MODE=     1    mode for optional k-point grid
 
 Orbital magnetization related:
   ORBITALMAG=     F  switch on orbital magnetization
   LCHIMAG   =     F  perturbation theory with respect to B field
   DQ        =  0.001000  dq finite difference perturbation B field
   LLRAUG    =     F  two centre corrections for induced B field



--------------------------------------------------------------------------------------------------------


 Static calculation
 charge density and potential will be updated during run
 spin polarized calculation
 Variant of blocked Davidson
 Davidson routine will perform the subspace rotation
 perform sub-space diagonalisation
    after iterative eigenvector-optimisation
 modified Broyden-mixing scheme, WC =      100.0
 initial mixing is a Kerker type mixing with AMIX =  0.4000 and BMIX =      1.0000
 Hartree-type preconditioning will be used
 using additional bands           266
 real space projection scheme for non local part
 use partial core corrections
 calculate Harris-corrections to forces 
   (improved forces if not selfconsistent)
 use gradient corrections 
 use of overlap-Matrix (Vanderbilt PP)
 Fermi weights with tetrahedron method with Bloechl corrections


--------------------------------------------------------------------------------------------------------


  energy-cutoff  :      520.00
  volume of cell :      912.02
      direct lattice vectors                 reciprocal lattice vectors
     8.733682000  0.000000000  0.000000000     0.114499246  0.000000000  0.000000000
     0.000000000  8.733682000  0.000000000     0.000000000  0.114499246  0.000000000
     0.000000000  0.000000000 11.956676000     0.000000000  0.000000000  0.083635285

  length of vectors
     8.733682000  8.733682000 11.956676000     0.114499246  0.114499246  0.083635285


 
 k-points in units of 2pi/SCALE and weight: Kpoints from vasprun.xml                
   0.00000000  0.00000000  0.00000000       0.056
   0.03816642  0.00000000  0.00000000       0.222
   0.03816642  0.03816642  0.00000000       0.222
   0.00000000  0.00000000  0.04181764       0.056
   0.03816642  0.00000000  0.04181764       0.222
   0.03816642  0.03816642  0.04181764       0.222
 
 k-points in reciprocal lattice and weights: Kpoints from vasprun.xml                
   0.00000000  0.00000000  0.00000000       0.056
   0.33333333  0.00000000  0.00000000       0.222
   0.33333333  0.33333333  0.00000000       0.222
   0.00000000  0.00000000  0.50000000       0.056
   0.33333333  0.00000000  0.50000000       0.222
   0.33333333  0.33333333  0.50000000       0.222
 
 position of ions in fractional coordinates (direct lattice) 
   0.23548300  0.76451700  0.50000000
   0.76451700  0.23548300  0.50000000
   0.26451700  0.26451700  0.00000000
   0.73548300  0.73548300  0.00000000
   0.64316700  0.64316700  0.50000000
   0.35683300  0.35683300  0.50000000
   0.85683300  0.14316700  0.00000000
   0.14316700  0.85683300  0.00000000
   0.00000000  0.50000000  0.50000000
   0.50000000  0.00000000  0.00000000
   0.50000000  0.00000000  0.50000000
   0.00000000  0.50000000  0.00000000
   0.50000000  0.50000000  0.11483600
   0.00000000  0.00000000  0.61483600
   0.50000000  0.50000000  0.88516400
   0.00000000  0.00000000  0.38516400
   0.18359800  0.81640200  0.25390100
   0.81640200  0.18359800  0.25390100
   0.31640200  0.31640200  0.75390100
   0.68359800  0.68359800  0.75390100
   0.81640200  0.18359800  0.74609900
   0.18359800  0.81640200  0.74609900
   0.68359800  0.68359800  0.24609900
   0.31640200  0.31640200  0.24609900
   0.40268900  0.59731100  0.29823500
   0.59731100  0.40268900  0.29823500
   0.09731100  0.09731100  0.79823500
   0.90268900  0.90268900  0.79823500
   0.59731100  0.40268900  0.70176500
   0.40268900  0.59731100  0.70176500
   0.90268900  0.90268900  0.20176500
   0.09731100  0.09731100  0.20176500
   0.14129400  0.53618800  0.32475300
   0.85870600  0.46381200  0.32475300
   0.35870600  0.03618800  0.82475300
   0.64129400  0.96381200  0.82475300
   0.85870600  0.46381200  0.67524700
   0.14129400  0.53618800  0.67524700
   0.64129400  0.96381200  0.17524700
   0.35870600  0.03618800  0.17524700
   0.53618800  0.14129400  0.32475300
   0.46381200  0.85870600  0.32475300
   0.03618800  0.35870600  0.82475300
   0.96381200  0.64129400  0.82475300
   0.46381200  0.85870600  0.67524700
   0.53618800  0.14129400  0.67524700
   0.96381200  0.64129400  0.17524700
   0.03618800  0.35870600  0.17524700
   0.93449900  0.72531700  0.37361700
   0.06550100  0.27468300  0.37361700
   0.56550100  0.22531700  0.87361700
   0.43449900  0.77468300  0.87361700
   0.06550100  0.27468300  0.62638300
   0.93449900  0.72531700  0.62638300
   0.43449900  0.77468300  0.12638300
   0.56550100  0.22531700  0.12638300
   0.72531700  0.93449900  0.37361700
   0.27468300  0.06550100  0.37361700
   0.22531700  0.56550100  0.87361700
   0.77468300  0.43449900  0.87361700
   0.27468300  0.06550100  0.62638300
   0.72531700  0.93449900  0.62638300
   0.77468300  0.43449900  0.12638300
   0.22531700  0.56550100  0.12638300
   0.87458300  0.87458300  0.50000000
   0.12541700  0.12541700  0.50000000
   0.62541700  0.37458300  0.00000000
   0.37458300  0.62541700  0.00000000
 
 position of ions in cartesian coordinates  (Angst):
   2.05663364  6.67704836  5.97833800
   6.67704836  2.05663364  5.97833800
   2.31020736  2.31020736  0.00000000
   6.42347464  6.42347464  0.00000000
   5.61721605  5.61721605  5.97833800
   3.11646595  3.11646595  5.97833800
   7.48330695  1.25037505  0.00000000
   1.25037505  7.48330695  0.00000000
   0.00000000  4.36684100  5.97833800
   4.36684100  0.00000000  0.00000000
   4.36684100  0.00000000  5.97833800
   0.00000000  4.36684100  0.00000000
   4.36684100  4.36684100  1.37305685
   0.00000000  0.00000000  7.35139485
   4.36684100  4.36684100 10.58361915
   0.00000000  0.00000000  4.60528115
   1.60348655  7.13019545  3.03581199
   7.13019545  1.60348655  3.03581199
   2.76335445  2.76335445  9.01414999
   5.97032755  5.97032755  9.01414999
   7.13019545  1.60348655  8.92086401
   1.60348655  7.13019545  8.92086401
   5.97032755  5.97032755  2.94252601
   2.76335445  2.76335445  2.94252601
   3.51695767  5.21672433  3.56589927
   5.21672433  3.51695767  3.56589927
   0.84988333  0.84988333  9.54423727
   7.88379867  7.88379867  9.54423727
   5.21672433  3.51695767  8.39077673
   3.51695767  5.21672433  8.39077673
   7.88379867  7.88379867  2.41243873
   0.84988333  0.84988333  2.41243873
   1.23401686  4.68289548  3.88296640
   7.49966514  4.05078652  3.88296640
   3.13282414  0.31605448  9.86130440
   5.60085786  8.41762752  9.86130440
   7.49966514  4.05078652  8.07370960
   1.23401686  4.68289548  8.07370960
   5.60085786  8.41762752  2.09537160
   3.13282414  0.31605448  2.09537160
   4.68289548  1.23401686  3.88296640
   4.05078652  7.49966514  3.88296640
   0.31605448  3.13282414  9.86130440
   8.41762752  5.60085786  9.86130440
   4.05078652  7.49966514  8.07370960
   4.68289548  1.23401686  8.07370960
   8.41762752  5.60085786  2.09537160
   0.31605448  3.13282414  2.09537160
   8.16161710  6.33468803  4.46721742
   0.57206490  2.39899397  4.46721742
   4.93890590  1.96784703 10.44555542
   3.79477610  6.76583497 10.44555542
   0.57206490  2.39899397  7.48945858
   8.16161710  6.33468803  7.48945858
   3.79477610  6.76583497  1.51112058
   4.93890590  1.96784703  1.51112058
   6.33468803  8.16161710  4.46721742
   2.39899397  0.57206490  4.46721742
   1.96784703  4.93890590 10.44555542
   6.76583497  3.79477610 10.44555542
   2.39899397  0.57206490  7.48945858
   6.33468803  8.16161710  7.48945858
   6.76583497  3.79477610  1.51112058
   1.96784703  4.93890590  1.51112058
   7.63832980  7.63832980  5.97833800
   1.09535220  1.09535220  5.97833800
   5.46219320  3.27148880  0.00000000
   3.27148880  5.46219320  0.00000000
 


--------------------------------------------------------------------------------------------------------


 k-point   1 :   0.0000 0.0000 0.0000  plane waves:   24577
 k-point   2 :   0.3333 0.0000 0.0000  plane waves:   24598
 k-point   3 :   0.3333 0.3333 0.0000  plane waves:   24495
 k-point   4 :   0.0000 0.0000 0.5000  plane waves:   24540
 k-point   5 :   0.3333 0.0000 0.5000  plane waves:   24566
 k-point   6 :   0.3333 0.3333 0.5000  plane waves:   24540

 maximum and minimum number of plane-waves per node :     24598    24495

 maximum number of plane-waves:     24598
 maximum index in each direction: 
   IXMAX=   16   IYMAX=   16   IZMAX=   22
   IXMIN=  -16   IYMIN=  -16   IZMIN=  -22


 serial   3D FFT for wavefunctions
 parallel 3D FFT for charge:
    minimum data exchange during FFTs selected (reduces bandwidth)


 total amount of memory used by VASP MPI-rank0  1279278. kBytes
=======================================================================

   base      :      30000. kBytes
   nonlr-proj:      83028. kBytes
   fftplans  :     130955. kBytes
   grid      :     113758. kBytes
   one-center:       6684. kBytes
   wavefun   :     914853. kBytes
 
     INWAV:  cpu time      0.0002: real time      0.0004
 Broyden mixing: mesh for mixing (old mesh)
   NGX = 33   NGY = 33   NGZ = 45
  (NGX  =140   NGY  =140   NGZ  =180)
  gives a total of  49005 points

 charge density for first step will be calculated from the start-wavefunctions


--------------------------------------------------------------------------------------------------------


 Maximum index for non-local projection operator          8499
 Maximum index for augmentation-charges         55558 (set IRDMAX)


--------------------------------------------------------------------------------------------------------


 initial charge from wavefunction
 First call to EWALD:  gamma=   0.183
 Maximum number of real-space cells 3x 3x 2
 Maximum number of reciprocal cells 3x 3x 3

    FEWALD:  cpu time      0.0051: real time      0.0051


--------------------------------------- Iteration      1(   1)  ---------------------------------------


    POTLOK:  cpu time      0.1150: real time      0.1613
    SETDIJ:  cpu time      9.4987: real time      9.5029
     EDDAV:  cpu time     15.7266: real time     15.8448
 BZINTS: Fermi energy:   25.090858;  940.000000 electrons
         Band energy:-0.112156E+06;  BLOECHL correction:   -0.139694
       DOS:  cpu time      0.1307: real time      0.1308
    --------------------------------------------
      LOOP:  cpu time     25.4710: real time     25.6398

 eigenvalue-minimisations  : 32128
 total energy-change (2. order) :-0.5972490E+05  (-0.1217308E+06)
 number of electron     940.0000010 magnetization       0.0000000
 augmentation part      153.0760016 magnetization       0.0249646

 Free energy of the ion-electron system (eV)
  ---------------------------------------------------
  alpha Z        PSCENC =      7878.73716841
  Ewald energy   TEWEN  =   -113309.31175906
  -Hartree energ DENC   =     -4096.73442644
  -exchange      EXHF   =         0.00000000
  -V(xc)+E(xc)   XCENC  =      3143.31591994
  PAW double counting   =    491540.48430732  -495006.61982884
  entropy T*S    EENTRO =         0.00000000
  eigenvalues    EBANDS =   -112155.64929545
  atomic energy  EATOM  =    162280.88091011
  Solvation  Ediel_sol  =         0.00000000
  ---------------------------------------------------
  free energy    TOTEN  =    -59724.89700399 eV

  energy without entropy =   -59724.89700399  energy(sigma->0) =   -59724.89700399


--------------------------------------------------------------------------------------------------------




--------------------------------------- Iteration      1(   2)  ---------------------------------------


     EDDAV:  cpu time     15.8090: real time     15.8179
 BZINTS: Fermi energy:  -29.665132;  940.000000 electrons
         Band energy:-0.123858E+06;  BLOECHL correction:   -0.078090
       DOS:  cpu time      0.1297: real time      0.1298
    --------------------------------------------
      LOOP:  cpu time     15.9388: real time     15.9476

 eigenvalue-minimisations  : 32256
 total energy-change (2. order) :-0.1170194E+05  (-0.1081480E+05)
 number of electron     940.0000010 magnetization       0.0000000
 augmentation part      153.0760016 magnetization       0.0249646

 Free energy of the ion-electron system (eV)
  ---------------------------------------------------
  alpha Z        PSCENC =      7878.73716841
  Ewald energy   TEWEN  =   -113309.31175906
  -Hartree energ DENC   =     -4096.73442644
  -exchange      EXHF   =         0.00000000
  -V(xc)+E(xc)   XCENC  =      3143.31591994
  PAW double counting   =    491540.48430732  -495006.61982884
  entropy T*S    EENTRO =         0.00000000
  eigenvalues    EBANDS =   -123857.59320911
  atomic energy  EATOM  =    162280.88091011
  Solvation  Ediel_sol  =         0.00000000
  ---------------------------------------------------
  free energy    TOTEN  =    -71426.84091765 eV

  energy without entropy =   -71426.84091765  energy(sigma->0) =   -71426.84091765


--------------------------------------------------------------------------------------------------------




--------------------------------------- Iteration      1(   3)  ---------------------------------------


     EDDAV:  cpu time     16.9954: real time     17.0058
 BZINTS: Fermi energy:  -66.988049;  940.000000 electrons
         Band energy:-0.127009E+06;  BLOECHL correction:   -1.386009
       DOS:  cpu time      0.1370: real time      0.1370
    --------------------------------------------
      LOOP:  cpu time     17.1324: real time     17.1428

 eigenvalue-minimisations  : 35000
 total energy-change (2. order) :-0.3151629E+04  (-0.2307609E+04)
 number of electron     940.0000010 magnetization       0.0000000
 augmentation part      153.0760016 magnetization       0.0249646

 Free energy of the ion-electron system (eV)
  ---------------------------------------------------
  alpha Z        PSCENC =      7878.73716841
  Ewald energy   TEWEN  =   -113309.31175906
  -Hartree energ DENC   =     -4096.73442644
  -exchange      EXHF   =         0.00000000
  -V(xc)+E(xc)   XCENC  =      3143.31591994
  PAW double counting   =    491540.48430732  -495006.61982884
  entropy T*S    EENTRO =         0.00000000
  eigenvalues    EBANDS =   -127009.22224571
  atomic energy  EATOM  =    162280.88091011
  Solvation  Ediel_sol  =         0.00000000
  ---------------------------------------------------
  free energy    TOTEN  =    -74578.46995425 eV

  energy without entropy =   -74578.46995425  energy(sigma->0) =   -74578.46995425


--------------------------------------------------------------------------------------------------------




--------------------------------------- Iteration      1(   4)  ---------------------------------------


     EDDAV:  cpu time     17.1865: real time     17.1967
 BZINTS: Fermi energy:  -91.394033;  940.000000 electrons
         Band energy:-0.128103E+06;  BLOECHL correction:   -0.891903
       DOS:  cpu time      0.1327: real time      0.1327
    --------------------------------------------
      LOOP:  cpu time     17.3191: real time     17.3294

 eigenvalue-minimisations  : 35328
 total energy-change (2. order) :-0.1093280E+04  (-0.9769593E+03)
 number of electron     940.0000010 magnetization       0.0000000
 augmentation part      153.0760016 magnetization       0.0249646

 Free energy of the ion-electron system (eV)
  ---------------------------------------------------
  alpha Z        PSCENC =      7878.73716841
  Ewald energy   TEWEN  =   -113309.31175906
  -Hartree energ DENC   =     -4096.73442644
  -exchange      EXHF   =         0.00000000
  -V(xc)+E(xc)   XCENC  =      3143.31591994
  PAW double counting   =    491540.48430732  -495006.61982884
  entropy T*S    EENTRO =         0.00000000
  eigenvalues    EBANDS =   -128102.50237270
  atomic energy  EATOM  =    162280.88091011
  Solvation  Ediel_sol  =         0.00000000
  ---------------------------------------------------
  free energy    TOTEN  =    -75671.75008124 eV

  energy without entropy =   -75671.75008124  energy(sigma->0) =   -75671.75008124


--------------------------------------------------------------------------------------------------------




--------------------------------------- Iteration      1(   5)  ---------------------------------------


     EDDAV:  cpu time     17.1404: real time     17.1513
 BZINTS: Fermi energy:  -97.745906;  940.000000 electrons
         Band energy:-0.128464E+06;  BLOECHL correction:   -0.036711
       DOS:  cpu time      0.1433: real time      0.1433
    CHARGE:  cpu time      0.7707: real time      0.7716
    MIXING:  cpu time      0.0092: real time      0.0092
    --------------------------------------------
      LOOP:  cpu time     18.0637: real time     18.0755

 eigenvalue-minimisations  : 35328
 total energy-change (2. order) :-0.3618788E+03  (-0.3213113E+03)
 number of electron     940.0000044 magnetization      -0.2294667
 augmentation part      757.8221962 magnetization      -1.0119147

 Broyden mixing:
  rms(total) = 0.25555E+03    rms(broyden)= 0.25555E+03
  rms(prec ) = 0.26925E+03
  weight for this iteration     100.00

 Free energy of the ion-electron system (eV)
  ---------------------------------------------------
  alpha Z        PSCENC =      7878.73716841
  Ewald energy   TEWEN  =   -113309.31175906
  -Hartree energ DENC   =     -4096.73442644
  -exchange      EXHF   =         0.00000000
  -V(xc)+E(xc)   XCENC  =      3143.31591994
  PAW double counting   =    491540.48430732  -495006.61982884
  entropy T*S    EENTRO =         0.00000000
  eigenvalues    EBANDS =   -128464.38121399
  atomic energy  EATOM  =    162280.88091011
  Solvation  Ediel_sol  =         0.00000000
  ---------------------------------------------------
  free energy    TOTEN  =    -76033.62892253 eV

  energy without entropy =   -76033.62892253  energy(sigma->0) =   -76033.62892253


--------------------------------------------------------------------------------------------------------




--------------------------------------- Iteration      1(   6)  ---------------------------------------


    POTLOK:  cpu time      0.0165: real time      0.0178
    SETDIJ:  cpu time      9.4622: real time      9.4662
     EDDAV:  cpu time     12.4856: real time     12.4921
 BZINTS: Fermi energy:  -22.924561;  940.000000 electrons
         Band energy:-0.467238E+05;  BLOECHL correction:   -0.032837
       DOS:  cpu time      0.1367: real time      0.1368
    CHARGE:  cpu time      0.7597: real time      0.7600
    MIXING:  cpu time      0.0083: real time      0.0107
    --------------------------------------------
      LOOP:  cpu time     22.8691: real time     22.8836

 eigenvalue-minimisations  : 24568
 total energy-change (2. order) : 0.6379089E+05  (-0.3870194E+04)
 number of electron     940.0000045 magnetization       0.0359844
 augmentation part      764.0061986 magnetization      -0.0630373

 Broyden mixing:
  rms(total) = 0.96610E+02    rms(broyden)= 0.96605E+02
  rms(prec ) = 0.10656E+03
  weight for this iteration     100.00

 eigenvalues of (default mixing * dielectric matrix)
  average eigenvalue GAMMA=   0.7809
  0.7809

 Free energy of the ion-electron system (eV)
  ---------------------------------------------------
  alpha Z        PSCENC =      7878.73716841
  Ewald energy   TEWEN  =   -113309.31175906
  -Hartree energ DENC   =    -19797.81715359
  -exchange      EXHF   =         0.00000000
  -V(xc)+E(xc)   XCENC  =      3900.50126700
  PAW double counting   =   3926288.09864258 -3932760.01505582
  entropy T*S    EENTRO =         0.00000000
  eigenvalues    EBANDS =    -46723.81617236
  atomic energy  EATOM  =    162280.88091011
  Solvation  Ediel_sol  =         0.00000000
  ---------------------------------------------------
  free energy    TOTEN  =    -12242.74215272 eV

  energy without entropy =   -12242.74215272  energy(sigma->0) =   -12242.74215272


--------------------------------------------------------------------------------------------------------




--------------------------------------- Iteration      1(   7)  ---------------------------------------


    POTLOK:  cpu time      0.0171: real time      0.0174
    SETDIJ:  cpu time      9.4436: real time      9.4475
     EDDAV:  cpu time     11.3350: real time     11.3403
 BZINTS: Fermi energy:    0.622316;  940.000000 electrons
         Band energy:-0.256097E+05;  BLOECHL correction:   -0.057028
       DOS:  cpu time      0.1393: real time      0.1394
    CHARGE:  cpu time      0.7576: real time      0.7579
    MIXING:  cpu time      0.0098: real time      0.0098
    --------------------------------------------
      LOOP:  cpu time     21.7024: real time     21.7123

 eigenvalue-minimisations  : 21768
 total energy-change (2. order) : 0.5991900E+04  (-0.1942098E+04)
 number of electron     940.0000034 magnetization      -0.2331076
 augmentation part      577.8955414 magnetization       0.1729914

 Broyden mixing:
  rms(total) = 0.15040E+03    rms(broyden)= 0.15040E+03
  rms(prec ) = 0.15287E+03
  weight for this iteration     100.00

 eigenvalues of (default mixing * dielectric matrix)
  average eigenvalue GAMMA=   0.6417
  0.6417  0.6417

 Free energy of the ion-electron system (eV)
  ---------------------------------------------------
  alpha Z        PSCENC =      7878.73716841
  Ewald energy   TEWEN  =   -113309.31175906
  -Hartree energ DENC   =    -32814.94234518
  -exchange      EXHF   =         0.00000000
  -V(xc)+E(xc)   XCENC  =      4420.79044791
  PAW double counting   =   2393788.79395671 -2402886.04787862
  entropy T*S    EENTRO =         0.00000000
  eigenvalues    EBANDS =    -25609.74259359
  atomic energy  EATOM  =    162280.88091011
  Solvation  Ediel_sol  =         0.00000000
  ---------------------------------------------------
  free energy    TOTEN  =     -6250.84209331 eV

  energy without entropy =    -6250.84209331  energy(sigma->0) =    -6250.84209331


--------------------------------------------------------------------------------------------------------




--------------------------------------- Iteration      1(   8)  ---------------------------------------


    POTLOK:  cpu time      0.0165: real time      0.0176
    SETDIJ:  cpu time      9.4655: real time      9.4699
     EDDAV:  cpu time     10.9354: real time     10.9427
 BZINTS: Fermi energy:   -4.194425;  940.000000 electrons
         Band energy:-0.272471E+05;  BLOECHL correction:   -0.010436
       DOS:  cpu time      0.1331: real time      0.1332
    CHARGE:  cpu time      0.7597: real time      0.7601
    MIXING:  cpu time      0.0085: real time      0.0085
    --------------------------------------------
      LOOP:  cpu time     21.3187: real time     21.3320

 eigenvalue-minimisations  : 20872
 total energy-change (2. order) : 0.1057798E+04  (-0.5028368E+03)
 number of electron     940.0000037 magnetization      -0.3371794
 augmentation part      624.7466973 magnetization      -0.4190689

 Broyden mixing:
  rms(total) = 0.12215E+03    rms(broyden)= 0.12215E+03
  rms(prec ) = 0.12691E+03
  weight for this iteration     100.00

 eigenvalues of (default mixing * dielectric matrix)
  average eigenvalue GAMMA=   0.6513
  0.8027  0.8027  0.3485

 Free energy of the ion-electron system (eV)
  ---------------------------------------------------
  alpha Z        PSCENC =      7878.73716841
  Ewald energy   TEWEN  =   -113309.31175906
  -Hartree energ DENC   =    -31014.90542893
  -exchange      EXHF   =         0.00000000
  -V(xc)+E(xc)   XCENC  =      4326.93140884
  PAW double counting   =   1956206.03879881 -1964314.36062192
  entropy T*S    EENTRO =         0.00000000
  eigenvalues    EBANDS =    -27247.05494325
  atomic energy  EATOM  =    162280.88091011
  Solvation  Ediel_sol  =         0.00000000
  ---------------------------------------------------
  free energy    TOTEN  =     -5193.04446698 eV

  energy without entropy =    -5193.04446698  energy(sigma->0) =    -5193.04446698


--------------------------------------------------------------------------------------------------------




--------------------------------------- Iteration      1(   9)  ---------------------------------------


    POTLOK:  cpu time      0.0162: real time      0.0174
    SETDIJ:  cpu time      9.4991: real time      9.5043
     EDDAV:  cpu time     10.7746: real time     10.7831
 BZINTS: Fermi energy:   -2.648256;  940.000000 electrons
         Band energy:-0.252501E+05;  BLOECHL correction:   -0.010095
       DOS:  cpu time      0.1404: real time      0.1405
    CHARGE:  cpu time      0.7638: real time      0.7644
    MIXING:  cpu time      0.0089: real time      0.0089
    --------------------------------------------
      LOOP:  cpu time     21.2031: real time     21.2185

 eigenvalue-minimisations  : 20536
 total energy-change (2. order) : 0.1544963E+04  (-0.1888466E+03)
 number of electron     940.0000040 magnetization      -0.8120272
 augmentation part      630.2918508 magnetization      -0.2782120

 Broyden mixing:
  rms(total) = 0.95650E+02    rms(broyden)= 0.95650E+02
  rms(prec ) = 0.99455E+02
  weight for this iteration     100.00

 eigenvalues of (default mixing * dielectric matrix)
  average eigenvalue GAMMA=   0.7298
  1.0854  1.0854  0.5220  0.2264

 Free energy of the ion-electron system (eV)
  ---------------------------------------------------
  alpha Z        PSCENC =      7878.73716841
  Ewald energy   TEWEN  =   -113309.31175906
  -Hartree energ DENC   =    -31935.04342073
  -exchange      EXHF   =         0.00000000
  -V(xc)+E(xc)   XCENC  =      4340.94767044
  PAW double counting   =   1490809.95256029 -1498464.15917342
  entropy T*S    EENTRO =         0.00000000
  eigenvalues    EBANDS =    -25250.08506636
  atomic energy  EATOM  =    162280.88091011
  Solvation  Ediel_sol  =         0.00000000
  ---------------------------------------------------
  free energy    TOTEN  =     -3648.08111031 eV

  energy without entropy =    -3648.08111031  energy(sigma->0) =    -3648.08111031


--------------------------------------------------------------------------------------------------------




--------------------------------------- Iteration      1(  10)  ---------------------------------------


    POTLOK:  cpu time      0.0170: real time      0.0174
    SETDIJ:  cpu time      9.4970: real time      9.5022
     EDDAV:  cpu time     13.3725: real time     13.3825
 BZINTS: Fermi energy:    2.598842;  940.000000 electrons
         Band energy:-0.245298E+05;  BLOECHL correction:   -0.018136
       DOS:  cpu time      0.1358: real time      0.1359
    CHARGE:  cpu time      0.7618: real time      0.7622
    MIXING:  cpu time      0.0105: real time      0.0105
    --------------------------------------------
      LOOP:  cpu time     23.7945: real time     23.8107

 eigenvalue-minimisations  : 26608
 total energy-change (2. order) :-0.2320981E+04  (-0.1462518E+04)
 number of electron     940.0000034 magnetization      -1.5051297
 augmentation part      604.6367507 magnetization      -1.1652626

 Broyden mixing:
  rms(total) = 0.61748E+02    rms(broyden)= 0.61748E+02
  rms(prec ) = 0.73450E+02
  weight for this iteration     100.00

 eigenvalues of (default mixing * dielectric matrix)
  average eigenvalue GAMMA=   0.7958
  1.3964  1.3964  0.6580  0.2640  0.2640

 Free energy of the ion-electron system (eV)
  ---------------------------------------------------
  alpha Z        PSCENC =      7878.73716841
  Ewald energy   TEWEN  =   -113309.31175906
  -Hartree energ DENC   =    -34498.17357198
  -exchange      EXHF   =         0.00000000
  -V(xc)+E(xc)   XCENC  =      4437.61008863
  PAW double counting   =    978709.23032998  -986938.23459848
  entropy T*S    EENTRO =         0.00000000
  eigenvalues    EBANDS =    -24529.80093636
  atomic energy  EATOM  =    162280.88091011
  Solvation  Ediel_sol  =         0.00000000
  ---------------------------------------------------
  free energy    TOTEN  =     -5969.06236874 eV

  energy without entropy =    -5969.06236874  energy(sigma->0) =    -5969.06236874


--------------------------------------------------------------------------------------------------------




--------------------------------------- Iteration      1(  11)  ---------------------------------------


    POTLOK:  cpu time      0.0167: real time      0.0176
    SETDIJ:  cpu time      9.5316: real time      9.5380
     EDDAV:  cpu time     14.9344: real time     14.9427
 BZINTS: Fermi energy:    8.597590;  940.000000 electrons
         Band energy:-0.161843E+05;  BLOECHL correction:   -0.024021
       DOS:  cpu time      0.1393: real time      0.1394
    CHARGE:  cpu time      0.7611: real time      0.7615
    MIXING:  cpu time      0.0088: real time      0.0088
    --------------------------------------------
      LOOP:  cpu time     25.3920: real time     25.4080

 eigenvalue-minimisations  : 30304
 total energy-change (2. order) : 0.2981534E+04  (-0.1795987E+03)
 number of electron     940.0000030 magnetization      -1.1564456
 augmentation part      520.8011166 magnetization      -1.5573877

 Broyden mixing:
  rms(total) = 0.36964E+02    rms(broyden)= 0.36963E+02
  rms(prec ) = 0.46610E+02
  weight for this iteration     100.00

 eigenvalues of (default mixing * dielectric matrix)
  average eigenvalue GAMMA=   0.8160
  1.5841  1.5841  0.6678  0.4030  0.4030  0.2543

 Free energy of the ion-electron system (eV)
  ---------------------------------------------------
  alpha Z        PSCENC =      7878.73716841
  Ewald energy   TEWEN  =   -113309.31175906
  -Hartree energ DENC   =    -40344.34351632
  -exchange      EXHF   =         0.00000000
  -V(xc)+E(xc)   XCENC  =      4629.11979733
  PAW double counting   =    431372.09265100  -439310.38517639
  entropy T*S    EENTRO =         0.00000000
  eigenvalues    EBANDS =    -16184.31836162
  atomic energy  EATOM  =    162280.88091011
  Solvation  Ediel_sol  =         0.00000000
  ---------------------------------------------------
  free energy    TOTEN  =     -2987.52828653 eV

  energy without entropy =    -2987.52828653  energy(sigma->0) =    -2987.52828653


--------------------------------------------------------------------------------------------------------




--------------------------------------- Iteration      1(  12)  ---------------------------------------


    POTLOK:  cpu time      0.0170: real time      0.0179
    SETDIJ:  cpu time      9.4781: real time      9.4832
     EDDAV:  cpu time     10.8043: real time     10.8113
 BZINTS: Fermi energy:    8.038782;  940.000000 electrons
         Band energy:-0.148122E+05;  BLOECHL correction:   -0.030254
       DOS:  cpu time      0.1379: real time      0.1379
    CHARGE:  cpu time      0.7621: real time      0.7624
    MIXING:  cpu time      0.0093: real time      0.0094
    --------------------------------------------
      LOOP:  cpu time     21.2088: real time     21.2221

 eigenvalue-minimisations  : 20624
 total energy-change (2. order) : 0.8393121E+03  (-0.3079394E+03)
 number of electron     940.0000030 magnetization      -1.1200666
 augmentation part      538.1586737 magnetization      -1.0718404

 Broyden mixing:
  rms(total) = 0.39915E+02    rms(broyden)= 0.39914E+02
  rms(prec ) = 0.48522E+02
  weight for this iteration     100.00

 eigenvalues of (default mixing * dielectric matrix)
  average eigenvalue GAMMA=   0.7934
  2.0658  1.3510  0.6190  0.4450  0.4450  0.3955  0.2327

 Free energy of the ion-electron system (eV)
  ---------------------------------------------------
  alpha Z        PSCENC =      7878.73716841
  Ewald energy   TEWEN  =   -113309.31175906
  -Hartree energ DENC   =    -41461.96543860
  -exchange      EXHF   =         0.00000000
  -V(xc)+E(xc)   XCENC  =      4651.87862706
  PAW double counting   =    272692.37987714  -280068.65444599
  entropy T*S    EENTRO =         0.00000000
  eigenvalues    EBANDS =    -14812.16111586
  atomic energy  EATOM  =    162280.88091011
  Solvation  Ediel_sol  =         0.00000000
  ---------------------------------------------------
  free energy    TOTEN  =     -2148.21617679 eV

  energy without entropy =    -2148.21617679  energy(sigma->0) =    -2148.21617679


--------------------------------------------------------------------------------------------------------




--------------------------------------- Iteration      1(  13)  ---------------------------------------


    POTLOK:  cpu time      0.0168: real time      0.0174
    SETDIJ:  cpu time      9.3326: real time      9.3368
[...]
  288          m_sumb_d                              0.000009                          2   4
  289        strnlr                                5.996439                            1   3
  290          rspher_all                            0.646127                          9   4
  291          phaser                                0.774508                         54   4
  292          rpro_isp                              4.561740                         54   4
  293            fftwav_mpi                            0.682243                    19872   5
  294              fftwav                                0.656967                  19872   6
  295                fft3d                                 0.132797                19872   7
  296            rpromu_acc                            2.731746                     4968   5
  297          m_sumb_d                              0.000018                          1   4
  298        fft3d_mpi                             0.005436                           22   3
  299          fftbrc_mpi                            0.004407                         22   4
  300            fftbas_plan_mpi                       0.004400                       22   5
  301              map_forward                           0.001752                     20   6
  302                map_gather                            0.000340                   10   7
  303                m_alltoallv_z                         0.000142                   10   7
  304                map_scatter                           0.001061                   10   7
  305              map_backward                          0.002010                     24   6
  306                map_gather                            0.000418                   12   7
  307                m_alltoallv_z                         0.000145                   12   7
  308                map_scatter                           0.001130                   12   7
  309        m_sumb_d                              0.000028                            5   3
  310        forhar                                0.004588                            2   3
  311          m_sumb_d                              0.000042                          2   4
  312        strehar                               0.004109                            1   3
  313          m_sumb_d                              0.000008                          1   4
  314        chggra                                0.001216                            1   3
  315          fft3d_mpi                             0.000789                          3   4
  316            fftbrc_mpi                            0.000638                        3   5
  317              fftbas_plan_mpi                       0.000635                      3   6
  318                map_forward                           0.000359                    4   7
  319                  map_gather                            0.000068                  2   8
  320                  m_alltoallv_z                         0.000031                  2   8
  321                  map_scatter                           0.000220                  2   8
  322                map_backward                          0.000178                    2   7
  323                  map_gather                            0.000035                  1   8
  324                  m_alltoallv_z                         0.000013                  1   8
  325                  map_scatter                           0.000105                  1   8
  326          m_sumb_d                              0.000009                          2   4
  327          pothar                                0.000093                          1   4
  328            m_sumb_d                              0.000004                        1   5
  329        brmix                                 0.029603                            1   3
  330          m_sumb_d                              0.000238                          6   4
  331          brpre                                 0.000074                          2   4
  332          setg0                                 0.003247                          1   4
  333          broyd                                 0.022308                          1   4
  334            brget                                 0.005788                      326   5
  335            brsav                                 0.002779                      163   5
  336            m_sumb_d                              0.000213                       47   5
  337        m_bcast_d                             0.000115                            2   3
  338      potlok                                0.099183                              2   2
  339        fft3d_mpi                             0.062870                           36   3
  340          fftbrc_mpi                            0.053512                         36   4
  341            fftbas_plan_mpi                       0.053484                       36   5
  342              map_forward                           0.015203                     40   6
  343                map_gather                            0.003863                   24   7
  344                m_alltoallv_z                         0.006940                   24   7
  345                map_scatter                           0.004138                   24   7
  346              map_backward                          0.012009                     32   6
  347                map_gather                            0.002774                   16   7
  348                m_alltoallv_z                         0.005179                   16   7
  349                map_scatter                           0.003738                   16   7
  350              dfftw_execute                         0.024404                     30   6
  351        m_sumb_d                              0.000030                            5   3
  352        pothar                                0.004410                            2   3
  353          m_sumb_d                              0.000460                          2   4
  354        m_bcast_d                             0.006703                            4   3
  355      potlok_metagga                        0.000000                              1   2
  356      set_dd_magatom                        0.000004                              1   2
  357      set_dd_paw                            8.978013                              1   2
  358        m_sumb_d                              0.078219                            7   3
  359      augmentation_charge                   0.476628                              1   2
  360        fft3d_mpi                             0.189134                            2   3
  361          fftbrc_mpi                            0.164751                          2   4
  362            fftbas_plan_mpi                       0.164748                        2   5
  363              dfftw_execute                         0.106215                      6   6
  364              map_backward                          0.058208                      4   6
  365                map_gather                            0.021171                    2   7
  366                m_alltoallv_z                         0.014190                    2   7
  367                map_scatter                           0.022832                    2   7
  368      fftwav_mpi                           18.814330                           6624   2
  369        fftwav                               18.805712                         6624   3
  370          fft3d                                17.320927                       6624   4
  371      densta                               14.951494                              1   2
 
 Flat profile
 ============
 
             routine name                   CPU           calls
 ---------------------------------------------------------------
 set_dd_paw                           2446.909631         273
 eddav                                 834.070796         275
 raccmu_                               589.617592     1136365
 lapack                                528.883001     1136365
 m_sumb_d                              407.823665     3435749
 redis_pw                              284.928192     6217614
 m_alltoall_d                          121.020736    16527350
 setdij_                                80.779125         299
 augmentation_charge                    78.691086         273
 eccp                                   76.512653      607200
 fft3d                                  70.288996     6632280
 dfftw_execute                          67.157504        6996
 orth1                                  58.878036     3409371
 redis_proj                             52.854155     7883156
 densta                                 52.711755         276
 hamiltmu                               51.158151     1136365
 phaser                                 47.453051        3378
 fftwav                                 42.850652     4359550
 total_time                             38.986254           1
 racc0mu_acc                            33.836210     1136365
 w1_copy                                32.784529     6818190
 overl                                  32.590789     3938272
 rpromu_acc                             28.012788      839941
 m_bcast_z                              26.282687     1145197
 ggemm                                  24.426734     1439965
 soft_charge                            22.825297         272
 setup_precond                          22.307265      607200
 m_bcast_d                              18.855422     2273281
 overl_mu                               17.691878     1136365
 pw_charge                              16.980858      385962
 fft3d_mpi                              15.639596     2282159
 map_scatter                            12.747884       10539
 map_gather                             11.771148       10539
 m_alltoallv_z                          10.813623       10539
 init_acc                               10.705647           1
 vhamil                                 10.374634     2272730
 kinhamil                               10.210934     2272730
 depsum                                 10.007779         272
 fftext_mpi                              9.553004     2272730
 newband                                 9.099747     1139665
 apply_precond                           9.084346     1665530
 set_charge                              8.379879         272
 fftwav_mpi                              5.799836     4359550
 acc_init_cublas                         3.381770           1
 broyd                                   3.241708         271
 potlok                                  2.653566         273
 rpro_isp                                1.624170          78
 brmix                                   1.286939         271
 sphpro_fast                             1.188972           2
 brget                                   1.087536       60215
 acc_init_cusolver                       1.022612           1
 rspher_all                              0.957048          14
 setg0                                   0.844893         273
 elmin                                   0.825824           1
 w1_projall                              0.819960      832765
 fftbas_plan_mpi                         0.536278        9429
 brsav                                   0.306615       17271
 acc_cufft_makeplan                      0.266445          19
 lincom                                  0.247670        3312
 truncate_high_frequency_w1              0.245574     2879930
 proall                                  0.204112           1
 orthch                                  0.142250           1
 map_backward                            0.093372        9962
 stufak                                  0.089165           1
 force_and_stress                        0.080651           1
 map_forward                             0.073810        8896
 fft_gq                                  0.068151         272
 choleski                                0.039388          12
 pothar                                  0.032264         274
 brpre                                   0.021626         542
 strnlr                                  0.014046           1
 strelo                                  0.007409           1
 strkin                                  0.006540           1
 fftbrc_mpi                              0.006048        9429
 inisym                                  0.005760           1
 fornlr                                  0.004649           1
 forhar                                  0.004546           2
 rsp                                     0.004428           1
 strehar                                 0.004101           1
 forloc                                  0.002265           1
 set_dd_magatom                          0.001230         273
 vectorpot                               0.001111         272
 brgrid                                  0.000521           1
 fordep                                  0.000365           1
 fewald                                  0.000358           1
 chggra                                  0.000325           1
 posmap                                  0.000262           2
 rcp                                     0.000109           1
 crpa_reader                             0.000027           1
 potlok_metagga                          0.000026         272
 acc_cufft_makeplans                     0.000013           3
 rotate_active_occupied_orbital          0.000001           1
 redis_pw_over_bands                     0.000000           1
 ---------------------------------------------------------------
  summed up times     6363.804052114487     
 
 Accumulative profile
 ====================
 
             routine name                   CPU           calls
 ---------------------------------------------------------------
 total_time                           6363.804052           1
 elmin                                6220.984215           1
 eddav                                3398.492865         275
 set_dd_paw                           2455.734942         273
 hamiltmu                              739.286425     1136365
 raccmu_                               641.145680     1136365
 lapack                                528.883001     1136365
 m_sumb_d                              407.823665     3435749
 redis_pw                              347.462252     6217614
 set_charge                            211.775831         272
 newband                               156.863400     1139665
 setdij_                               141.906403         299
 fft3d_mpi                             135.016699     2282159
 augmentation_charge                   131.536310         273
 m_alltoall_d                          121.020736    16527350
 redis_proj                            111.340830     7883156
 fftbrc_mpi                            103.199667        9429
 fftbas_plan_mpi                       103.193619        9429
 fftwav_mpi                            102.762048     4359550
 fftwav                                 96.962212     4359550
 eccp                                   76.512653      607200
 fft3d                                  70.288996     6632280
 dfftw_execute                          67.157504        6996
 soft_charge                            60.885324         272
 orth1                                  58.878036     3409371
 densta                                 52.711755         276
 phaser                                 47.453051        3378
 kinhamil                               36.607960     2272730
 racc0mu_acc                            33.836210     1136365
 w1_copy                                32.784529     6818190
 overl                                  32.590789     3938272
 force_and_stress                       30.136215           1
 rpromu_acc                             28.012788      839941
 fftext_mpi                             26.397025     2272730
 m_bcast_z                              26.282687     1145197
 w1_projall                             25.128659      832765
 ggemm                                  24.426734     1439965
 setup_precond                          22.307265      607200
 map_backward                           19.864199        9962
 m_bcast_d                              18.855422     2273281
 overl_mu                               17.691878     1136365
 pw_charge                              16.980858      385962
 map_forward                            15.635638        8896
 map_scatter                            12.747884       10539
 map_gather                             11.771148       10539
 m_alltoallv_z                          10.813623       10539
 init_acc                               10.705647           1
 vhamil                                 10.374634     2272730
 depsum                                 10.206091         272
 apply_precond                           9.084346     1665530
 brmix                                   6.884125         271
 rpro_isp                                6.419045          78
 strnlr                                  5.996439           1
 potlok                                  4.708294         273
 broyd                                   4.698290         271
 acc_init_cublas                         3.381770           1
 fordep                                  2.843702           1
 fornlr                                  1.995277           1
 fft_gq                                  1.732362         272
 sphpro_fast                             1.239087           2
 brget                                   1.087536       60215
 acc_init_cusolver                       1.022612           1
 rspher_all                              0.957048          14
 orthch                                  0.850289           1
 setg0                                   0.844893         273
 proall                                  0.629788           1
 brsav                                   0.306615       17271
 acc_cufft_makeplans                     0.266458           3
 acc_cufft_makeplan                      0.266445          19
 lincom                                  0.247670        3312
 truncate_high_frequency_w1              0.245574     2879930
 stufak                                  0.089165           1
 choleski                                0.039388          12
 pothar                                  0.035653         274
 brpre                                   0.021626         542
 strelo                                  0.007418           1
 strkin                                  0.006552           1
 inisym                                  0.006022           1
 forloc                                  0.005188           1
 fewald                                  0.005105           1
 forhar                                  0.004588           2
 rsp                                     0.004428           1
 strehar                                 0.004109           1
 set_dd_magatom                          0.001230         273
 chggra                                  0.001216           1
 vectorpot                               0.001111         272
 brgrid                                  0.000521           1
 posmap                                  0.000262           2
 rcp                                     0.000109           1
 crpa_reader                             0.000027           1
 potlok_metagga                          0.000026         272
 rotate_active_occupied_orbital          0.000001           1
 redis_pw_over_bands                     0.000000           1
 ---------------------------------------------------------------
 
Profiling took  14.261289  6.757951  0.003403  0.003292 seconds
Profiling took   8.793149 seconds
