 vasp.6.3.2 27Jun22 (build Jul  3 2023 11:46:21) complex                         
 executed on    LinuxNV_CrayMPICH date 2024.04.22  00:11:43
 running on    4 total cores
 distrk:  each k-point on    4 cores,    1 groups
 distr:  one band on NCORE=   1 cores,    4 groups


--------------------------------------------------------------------------------------------------------


 INCAR:
   ADDGRID = True
   ALGO = Normal
   EDIFF = 0.00025
   ENCUT = 520.0
   IBRION = -1
   ICHARG = 0
   ISIF = 3
   ISMEAR = -5
   ISPIN = 2
   KPOINT_BSE = -1 0 0 0
   LAECHG = True
   LASPH = True
   LCHARG = True
   LELF = True
   LORBIT = 11
   LREAL = Auto
   LVHAR = True
   LWAVE = False
   MAGMOM = 1*7.0 4*0.6
   NELM = 1000
   NSW = 0
   PREC = accurate
   SIGMA = 0.05

 POTCAR:    PAW_PBE Gd 23Dec2003                  
 POTCAR:    PAW_PBE Si 05Jan2001                  
 POTCAR:    PAW_PBE Ir 06Sep2000                  
 POTCAR:    PAW_PBE Gd 23Dec2003                  
   SHA256 =  58854b40b4643190560b0e2b62d2ab46bea96585f82c6231a0f4f44b8c3188dc Gd/POTCAR             
   COPYR  = (c) Copyright 23Dec2003 Georg Kresse                                                    
   COPYR  = This file is part of the software VASP. Any use, copying, and all other rights are regul
   COPYR  = If you do not have a valid VASP license, you may not use, copy or distribute this file. 
   VRHFIN =Gd : [core=Xe4]                                                                          
   LEXCH  = PE                                                                                      
   EATOM  =  3047.6032 eV,  223.9925 Ry                                                             
                                                                                                    
   TITEL  = PAW_PBE Gd 23Dec2003                                                                    
   LULTRA =        F    use ultrasoft PP ?                                                          
   IUNSCR =        1    unscreen: 0-lin 1-nonlin 2-no                                               
   RPACOR =    2.300    partial core radius                                                         
   POMASS =  157.250; ZVAL   =   18.000    mass and valenz                                          
   RCORE  =    2.800    outmost cutoff radius                                                       
   RWIGS  =    2.800; RWIGS  =    1.482    wigner-seitz radius (au A)                               
   ENMAX  =  256.472; ENMIN  =  192.354 eV                                                          
   RCLOC  =    2.316    cutoff for local pot                                                        
   LCOR   =        T    correct aug charges                                                         
   LPAW   =        T    paw PP                                                                      
   EAUG   =  537.243                                                                                
   DEXC   =    0.000                                                                                
   RMAX   =    2.857    core radius for proj-oper                                                   
   RAUG   =    1.300    factor for augmentation sphere                                              
   RDEP   =    2.921    radius for radial grids                                                     
   RDEPT  =    2.247    core radius for aug-charge                                                  
                                                                                                    
   Atomic configuration                                                                             
   14 entries                                                                                       
     n  l   j            E        occ.                                                              
     1  0  0.50    -50087.2354   2.0000                                                             
     2  0  0.50     -8269.2182   2.0000                                                             
     2  1  1.50     -7357.3672   6.0000                                                             
     3  0  0.50     -1833.2681   2.0000                                                             
     3  1  1.50     -1550.9376   6.0000                                                             
     3  2  2.50     -1178.7204  10.0000                                                             
     4  0  0.50      -369.2978   2.0000                                                             
     4  1  1.50      -276.2601   6.0000                                                             
     4  2  2.50      -147.6611  10.0000                                                             
     5  0  0.50       -49.7260   2.0000                                                             
     6  0  0.50        -4.1254   2.0000                                                             
     5  1  1.50       -27.2538   6.0000                                                             
     5  2  2.50        -2.5337   1.0000                                                             
     4  3  2.50        -8.7140   7.0000                                                             
   Description                                                                                      
     l       E           TYP  RCUT    TYP  RCUT                                                     
     0    -49.7259557     23  2.400                                                                 
     0     -4.1254107     23  2.400                                                                 
     1    -27.2537518     23  2.400                                                                 
     1     20.4087390     23  2.400                                                                 
     2     -2.5337329     23  2.500                                                                 
     2     13.6058260     23  2.500                                                                 
     3     -8.7140389     23  2.800                                                                 
     3     -9.5240782     23  2.800                                                                 
  local pseudopotential read in
  partial core-charges read in
  partial kinetic energy density read in
  atomic valenz-charges read in
  non local Contribution for L=            0  read in
    real space projection operators read in
  non local Contribution for L=            0  read in
    real space projection operators read in
  non local Contribution for L=            1  read in
    real space projection operators read in
  non local Contribution for L=            1  read in
    real space projection operators read in
  non local Contribution for L=            2  read in
    real space projection operators read in
  non local Contribution for L=            2  read in
    real space projection operators read in
  non local Contribution for L=            3  read in
    real space projection operators read in
  non local Contribution for L=            3  read in
    real space projection operators read in
    PAW grid and wavefunctions read in
 
   number of l-projection  operators is LMAX  =            8
   number of lm-projection operators is LMMAX =           32
 
 POTCAR:    PAW_PBE Si 05Jan2001                  
   SHA256 =  79d9987ad8750f624c4d6acb2a16d13abf6a777132adc04dc6c8399be72b42bb Si/POTCAR             
   COPYR  = (c) Copyright 05Jan2001 Georg Kresse                                                    
   COPYR  = This file is part of the software VASP. Any use, copying, and all other rights are regul
   COPYR  = If you do not have a valid VASP license, you may not use, copy or distribute this file. 
   VRHFIN =Si: s2p2                                                                                 
   LEXCH  = PE                                                                                      
   EATOM  =   103.0669 eV,    7.5752 Ry                                                             
                                                                                                    
   TITEL  = PAW_PBE Si 05Jan2001                                                                    
   LULTRA =        F    use ultrasoft PP ?                                                          
   IUNSCR =        1    unscreen: 0-lin 1-nonlin 2-no                                               
   RPACOR =    1.500    partial core radius                                                         
   POMASS =   28.085; ZVAL   =    4.000    mass and valenz                                          
   RCORE  =    1.900    outmost cutoff radius                                                       
   RWIGS  =    2.480; RWIGS  =    1.312    wigner-seitz radius (au A)                               
   ENMAX  =  245.345; ENMIN  =  184.009 eV                                                          
   ICORE  =        2    local potential                                                             
   LCOR   =        T    correct aug charges                                                         
   LPAW   =        T    paw PP                                                                      
   EAUG   =  322.069                                                                                
   DEXC   =    0.000                                                                                
   RMAX   =    1.950    core radius for proj-oper                                                   
   RAUG   =    1.300    factor for augmentation sphere                                              
   RDEP   =    1.993    radius for radial grids                                                     
   RDEPT  =    1.837    core radius for aug-charge                                                  
                                                                                                    
   Atomic configuration                                                                             
    6 entries                                                                                       
     n  l   j            E        occ.                                                              
     1  0  0.50     -1785.8828   2.0000                                                             
     2  0  0.50      -139.4969   2.0000                                                             
     2  1  1.50       -95.5546   6.0000                                                             
     3  0  0.50       -10.8127   2.0000                                                             
     3  1  0.50        -4.0811   2.0000                                                             
     3  2  1.50        -4.0817   0.0000                                                             
   Description                                                                                      
     l       E           TYP  RCUT    TYP  RCUT                                                     
     0    -10.8127223     23  1.900                                                                 
     0     -7.6451159     23  1.900                                                                 
     1     -4.0811372     23  1.900                                                                 
     1      2.4879257     23  1.900                                                                 
     2     -4.0817478      7  1.900                                                                 
  local pseudopotential read in
  partial core-charges read in
  partial kinetic energy density read in
  atomic valenz-charges read in
  non local Contribution for L=            0  read in
    real space projection operators read in
  non local Contribution for L=            0  read in
    real space projection operators read in
  non local Contribution for L=            1  read in
    real space projection operators read in
  non local Contribution for L=            1  read in
    real space projection operators read in
    PAW grid and wavefunctions read in
 
   number of l-projection  operators is LMAX  =            4
   number of lm-projection operators is LMMAX =            8
 
 POTCAR:    PAW_PBE Ir 06Sep2000                  
   SHA256 =  7c6af8d4d487b237782eb51e6f62977b27a1da78c3c96acd1cebefd6c308f120 Ir/POTCAR             
   COPYR  = (c) Copyright 06Sep2000 Georg Kresse                                                    
   COPYR  = This file is part of the software VASP. Any use, copying, and all other rights are regul
   COPYR  = If you do not have a valid VASP license, you may not use, copy or distribute this file. 
   VRHFIN =Ir: s1d8                                                                                 
   LEXCH  = PE                                                                                      
   EATOM  =   560.1833 eV,   41.1723 Ry                                                             
                                                                                                    
   TITEL  = PAW_PBE Ir 06Sep2000                                                                    
   LULTRA =        F    use ultrasoft PP ?                                                          
   IUNSCR =        1    unscreen: 0-lin 1-nonlin 2-no                                               
   RPACOR =    2.250    partial core radius                                                         
   POMASS =  192.220; ZVAL   =    9.000    mass and valenz                                          
   RCORE  =    2.600    outmost cutoff radius                                                       
   RWIGS  =    2.690; RWIGS  =    1.423    wigner-seitz radius (au A)                               
   ENMAX  =  210.864; ENMIN  =  158.148 eV                                                          
   RCLOC  =    1.857    cutoff for local pot                                                        
   LCOR   =        T    correct aug charges                                                         
   LPAW   =        T    paw PP                                                                      
   EAUG   =  318.962                                                                                
   DEXC   =    0.000                                                                                
   RMAX   =    2.667    core radius for proj-oper                                                   
   RAUG   =    1.300    factor for augmentation sphere                                              
   RDEP   =    2.748    radius for radial grids                                                     
   RDEPT  =    2.300    core radius for aug-charge                                                  
                                                                                                    
   Atomic configuration                                                                             
   16 entries                                                                                       
     n  l   j            E        occ.                                                              
     1  0  0.50    -76100.0449   2.0000                                                             
     2  0  0.50    -13308.1683   2.0000                                                             
     2  1  1.50    -11558.0021   6.0000                                                             
     3  0  0.50     -3110.7274   2.0000                                                             
     3  1  1.50     -2599.2109   6.0000                                                             
     3  2  2.50     -2037.1515  10.0000                                                             
     4  0  0.50      -661.6001   2.0000                                                             
     4  1  1.50      -493.8981   6.0000                                                             
     4  2  2.50      -288.1909  10.0000                                                             
     4  3  3.50       -59.5718  14.0000                                                             
     5  0  0.50       -95.3879   2.0000                                                             
     5  1  1.50       -52.2747   6.0000                                                             
     5  2  2.50        -5.4180   8.0000                                                             
     6  0  0.50        -5.5479   1.0000                                                             
     6  1  1.50        -6.8029   0.0000                                                             
     5  3  2.50        -1.3606   0.0000                                                             
   Description                                                                                      
     l       E           TYP  RCUT    TYP  RCUT                                                     
     2     -5.4179967     23  2.600                                                                 
     2     -6.7785793     23  2.600                                                                 
     0     -5.5478636     23  2.600                                                                 
     0      2.2542272     23  2.600                                                                 
     1     -2.7211652     23  2.600                                                                 
     1     20.4087390     23  2.600                                                                 
  local pseudopotential read in
  partial core-charges read in
  partial kinetic energy density read in
  atomic valenz-charges read in
  non local Contribution for L=            2  read in
    real space projection operators read in
  non local Contribution for L=            2  read in
    real space projection operators read in
  non local Contribution for L=            0  read in
    real space projection operators read in
  non local Contribution for L=            0  read in
    real space projection operators read in
  non local Contribution for L=            1  read in
    real space projection operators read in
  non local Contribution for L=            1  read in
    real space projection operators read in
    PAW grid and wavefunctions read in
 
   number of l-projection  operators is LMAX  =            6
   number of lm-projection operators is LMMAX =           18
 
 -----------------------------------------------------------------------------
|                                                                             |
|               ----> ADVICE to this user running VASP <----                  |
|                                                                             |
|     You have a (more or less) 'small supercell' and for smaller cells       |
|     it is recommended to use the reciprocal-space projection scheme!        |
|     The real-space optimization is not efficient for small cells and it     |
|     is also less accurate ...                                               |
|     Therefore, set LREAL=.FALSE. in the INCAR file.                         |
|                                                                             |
 -----------------------------------------------------------------------------

 Optimization of the real space projectors (new method)

 maximal supplied QI-value         = 13.42
 optimisation between [QCUT,QGAM] = [ 11.67, 23.35] = [ 38.16,152.62] Ry 
 Optimized for a Real-space Cutoff    1.63 Angstroem

   l    n(q)    QCUT    max X(q) W(low)/X(q) W(high)/X(q)  e(spline) 
   0     11    11.673    10.501    0.14E-04    0.17E-05    0.21E-07
   0     11    11.673     9.148    0.21E-04    0.32E-05    0.45E-07
   1     11    11.673     4.035    0.33E-05    0.11E-04    0.84E-07
   1     11    11.673     4.388    0.11E-04    0.47E-04    0.34E-06
   2     10    11.673    20.656    0.12E-04    0.28E-04    0.54E-06
   2     10    11.673    12.651    0.11E-04    0.26E-04    0.51E-06
   3     10    11.673    61.921    0.19E-03    0.22E-03    0.23E-06
   3     10    11.673    48.328    0.20E-03    0.23E-03    0.23E-06
 Optimization of the real space projectors (new method)

 maximal supplied QI-value         = 19.84
 optimisation between [QCUT,QGAM] = [ 11.51, 23.22] = [ 37.09,150.92] Ry 
 Optimized for a Real-space Cutoff    1.21 Angstroem

   l    n(q)    QCUT    max X(q) W(low)/X(q) W(high)/X(q)  e(spline) 
   0      8    11.508   159.560    0.71E-04    0.15E-03    0.51E-07
   0      8    11.508   115.863    0.70E-04    0.15E-03    0.51E-07
   1      8    11.508    88.339    0.16E-03    0.38E-04    0.82E-07
   1      8    11.508    48.592    0.15E-03    0.36E-04    0.79E-07
 Optimization of the real space projectors (new method)

 maximal supplied QI-value         = 14.36
 optimisation between [QCUT,QGAM] = [ 11.63, 23.27] = [ 37.90,151.59] Ry 
 Optimized for a Real-space Cutoff    1.63 Angstroem

   l    n(q)    QCUT    max X(q) W(low)/X(q) W(high)/X(q)  e(spline) 
   2     10    11.633   134.116    0.23E-03    0.25E-04    0.92E-06
   2     10    11.633   130.192    0.23E-03    0.25E-04    0.92E-06
   0     11    11.633    60.310    0.44E-04    0.29E-04    0.76E-06
   0     11    11.633    39.218    0.38E-04    0.27E-04    0.71E-06
   1     11    11.633    18.439    0.37E-04    0.62E-04    0.19E-06
   1     11    11.633    12.760    0.29E-04    0.50E-04    0.16E-06
  PAW_PBE Gd 23Dec2003                  :
 energy of atom  1       EATOM=-3047.6032
 kinetic energy error for atom=    0.0019 (will be added to EATOM!!)
  PAW_PBE Si 05Jan2001                  :
 energy of atom  2       EATOM= -103.0669
 kinetic energy error for atom=    0.0005 (will be added to EATOM!!)
  PAW_PBE Ir 06Sep2000                  :
 energy of atom  3       EATOM= -560.1833
 kinetic energy error for atom=    0.0013 (will be added to EATOM!!)
 
 
 POSCAR: Gd1 Si2 Ir2
  positions in direct lattice
  No initial velocities read in
 exchange correlation table for  LEXCH =        8
   RHO(1)=    0.500       N(1)  =     2000
   RHO(2)=  100.500       N(2)  =     4000

 VTST: version 4.2, (08/11/21)

 CHAIN: initializing optimizer
 
 OPT: Using VASP Dynamics algorithm
 CHAIN: Read ICHAIN             0
 
 POSCAR: Gd1 Si2 Ir2
  positions in direct lattice
  No initial velocities read in
 


--------------------------------------------------------------------------------------------------------


 ion  position               nearest neighbor table
   1  0.000  0.000  0.000-   2 3.15   2 3.15   2 3.15   3 3.15   2 3.15   3 3.15   3 3.15   3 3.15
                             4 3.25   4 3.25   5 3.25   5 3.25   5 3.25   4 3.25   4 3.25   5 3.25
   2  0.622  0.622  0.000-   4 2.42   5 2.42   4 2.42   5 2.42   3 2.46   1 3.15   1 3.15   1 3.15
                             1 3.15
   3  0.378  0.378  0.000-   4 2.42   5 2.42   4 2.42   5 2.42   2 2.46   1 3.15   1 3.15   1 3.15
                             1 3.15
   4  0.250  0.750  0.500-   3 2.42   2 2.42   3 2.42   2 2.42   5 2.90   5 2.90   5 2.90   5 2.90
                             1 3.25   1 3.25   1 3.25   1 3.25
   5  0.750  0.250  0.500-   3 2.42   2 2.42   3 2.42   2 2.42   4 2.90   4 2.90   4 2.90   4 2.90
                             1 3.25   1 3.25   1 3.25   1 3.25
 
  LATTYP: Found a body centered tetragonal cell.
 ALAT       =     4.0947820000
 C/A-ratio  =     2.4599399919
  
  Lattice vectors:
  
 A1 = (  -2.0473910000,   2.0473910000,   5.0364590000)
 A2 = (   2.0473910000,  -2.0473910000,   5.0364590000)
 A3 = (   2.0473910000,   2.0473910000,  -5.0364590000)


Analysis of symmetry for initial positions (statically):
=====================================================================
 Subroutine PRICEL returns:
 Original cell was already a primitive cell.
 

 Routine SETGRP: Setting up the symmetry group for a 
 body centered tetragonal supercell.


 Subroutine GETGRP returns: Found 16 space group operations
 (whereof 16 operations were pure point group operations)
 out of a pool of 16 trial point group operations.


The static configuration has the point symmetry D_4h.


Analysis of symmetry for dynamics (positions and initial velocities):
=====================================================================
 Subroutine PRICEL returns:
 Original cell was already a primitive cell.
 

 Routine SETGRP: Setting up the symmetry group for a 
 body centered tetragonal supercell.


 Subroutine GETGRP returns: Found 16 space group operations
 (whereof 16 operations were pure point group operations)
 out of a pool of 16 trial point group operations.


The dynamic configuration has the point symmetry D_4h.


Analysis of structural, dynamic, and magnetic symmetry:
=====================================================================
 Subroutine PRICEL returns:
 Original cell was already a primitive cell.
 

 Routine SETGRP: Setting up the symmetry group for a 
 body centered tetragonal supercell.


 Subroutine GETGRP returns: Found 16 space group operations
 (whereof 16 operations were pure point group operations)
 out of a pool of 16 trial point group operations.


The overall configuration has the point symmetry D_4h.


 Subroutine INISYM returns: Found 16 space group operations
 (whereof 16 operations are pure point group operations),
 and found     1 'primitive' translations


----------------------------------------------------------------------------------------

                                     Primitive cell                                     

  volume of cell :      84.4475

  direct lattice vectors                    reciprocal lattice vectors
    -2.047391000  2.047391000  5.036459000     0.000000000  0.244213245  0.099276099
     2.047391000 -2.047391000  5.036459000     0.244213245  0.000000000  0.099276099
     2.047391000  2.047391000 -5.036459000     0.244213245  0.244213245  0.000000000

  length of vectors
     5.809435349  5.809435349  5.809435349     0.263620661  0.263620661  0.345369683

  position of ions in fractional coordinates (direct lattice)
     0.000000000  0.000000000  0.000000000
     0.622078000  0.622078000  0.000000000
     0.377922000  0.377922000  0.000000000
     0.250000000  0.750000000  0.500000000
     0.750000000  0.250000000  0.500000000

  ion indices of the primitive-cell ions
   primitive index   ion index
                 1           1
                 2           2
                 3           3
                 4           4
                 5           5

----------------------------------------------------------------------------------------

 
 
 KPOINTS: Kpoints from vasprun.xml                

Automatic generation of k-mesh.
 Grid dimensions read from file:
 generate k-points for:    6    6    6

 Generating k-lattice:

  Cartesian coordinates                     Fractional coordinates (reciprocal lattice)
     0.000000000  0.040702208  0.016546016     0.166666667  0.000000000  0.000000000
     0.040702208  0.000000000  0.016546016    -0.000000000  0.166666667  0.000000000
     0.040702208  0.040702208  0.000000000    -0.000000000  0.000000000  0.166666667

  Length of vectors
     0.043936777  0.043936777  0.057561614

  Shift w.r.t. Gamma in fractional coordinates (k-lattice)
     0.000000000  0.000000000  0.000000000

 TETIRR: Found    277 inequivalent tetrahedra from     1296
 
 Subroutine IBZKPT returns following result:
 ===========================================
 
 Found     30 irreducible k-points:
 
 Following reciprocal coordinates:
            Coordinates               Weight
  0.000000  0.000000  0.000000      1.000000
  0.166667  0.000000  0.000000      8.000000
  0.333333  0.000000  0.000000      8.000000
  0.500000  0.000000  0.000000      4.000000
  0.166667  0.166667  0.000000      8.000000
  0.333333  0.166667  0.000000     16.000000
  0.500000  0.166667  0.000000     16.000000
 -0.333333  0.166667  0.000000     16.000000
 -0.166667  0.166667  0.000000      4.000000
  0.333333  0.333333  0.000000      8.000000
  0.500000  0.333333  0.000000     16.000000
 -0.333333  0.333333  0.000000      4.000000
  0.500000  0.500000  0.000000      2.000000
  0.166667  0.166667  0.166667      8.000000
  0.333333  0.166667  0.166667      8.000000
 -0.166667  0.166667  0.166667      4.000000
  0.333333  0.333333  0.166667      4.000000
 -0.333333  0.333333  0.166667      8.000000
 -0.166667  0.333333  0.166667      8.000000
  0.500000  0.500000  0.166667      4.000000
 -0.333333  0.500000  0.166667     16.000000
 -0.166667  0.500000  0.166667      8.000000
 -0.333333 -0.333333  0.166667      8.000000
 -0.166667 -0.333333  0.166667      8.000000
 -0.166667 -0.166667  0.166667      2.000000
 -0.333333  0.333333  0.333333      4.000000
  0.500000  0.500000  0.333333      4.000000
 -0.333333  0.500000  0.333333      8.000000
 -0.333333 -0.333333  0.333333      2.000000
  0.500000  0.500000  0.500000      1.000000
 
 Following cartesian coordinates:
            Coordinates               Weight
  0.000000  0.000000  0.000000      1.000000
  0.000000  0.040702  0.016546      8.000000
  0.000000  0.081404  0.033092      8.000000
  0.000000  0.122107  0.049638      4.000000
  0.040702  0.040702  0.033092      8.000000
  0.040702  0.081404  0.049638     16.000000
  0.040702  0.122107  0.066184     16.000000
  0.040702 -0.081404 -0.016546     16.000000
  0.040702 -0.040702  0.000000      4.000000
  0.081404  0.081404  0.066184      8.000000
  0.081404  0.122107  0.082730     16.000000
  0.081404 -0.081404  0.000000      4.000000
  0.122107  0.122107  0.099276      2.000000
  0.081404  0.081404  0.033092      8.000000
  0.081404  0.122107  0.049638      8.000000
  0.081404  0.000000  0.000000      4.000000
  0.122107  0.122107  0.066184      4.000000
  0.122107 -0.040702  0.000000      8.000000
  0.122107  0.000000  0.016546      8.000000
  0.162809  0.162809  0.099276      4.000000
  0.162809 -0.040702  0.016546     16.000000
  0.162809  0.000000  0.033092      8.000000
 -0.040702 -0.040702 -0.066184      8.000000
 -0.040702  0.000000 -0.049638      8.000000
  0.000000  0.000000 -0.033092      2.000000
  0.162809  0.000000  0.000000      4.000000
  0.203511  0.203511  0.099276      4.000000
  0.203511  0.000000  0.016546      8.000000
  0.000000  0.000000 -0.066184      2.000000
  0.244213  0.244213  0.099276      1.000000
 


--------------------------------------------------------------------------------------------------------




 Dimension of arrays:
   k-points           NKPTS =     30   k-points in BZ     NKDIM =     30   number of bands    NBANDS=     32
   number of dos      NEDOS =    301   number of ions     NIONS =      5
   non local maximal  LDIM  =      8   non local SUM 2l+1 LMDIM =     32
   total plane-waves  NPLWV = 110592
   max r-space proj   IRMAX =  23685   max aug-charges    IRDMAX= 757705
   dimension x,y,z NGX =    48 NGY =   48 NGZ =   48
   dimension x,y,z NGXF=    96 NGYF=   96 NGZF=   96
   support grid    NGXF=   192 NGYF=  192 NGZF=  192
   ions per type =               1   2   2
   NGX,Y,Z   is equivalent  to a cutoff of  13.74, 13.74, 13.74 a.u.
   NGXF,Y,Z  is equivalent  to a cutoff of  27.47, 27.47, 27.47 a.u.

 SYSTEM =  unknown system                          
 POSCAR =  Gd1 Si2 Ir2                             

 Startparameter for this run:
   NWRITE =      2    write-flag & timer
   PREC   = accura    normal or accurate (medium, high low for compatibility)
   ISTART =      0    job   : 0-new  1-cont  2-samecut
   ICHARG =      0    charge: 1-file 2-atom 10-const
   ISPIN  =      2    spin polarized calculation?
   LNONCOLLINEAR =      F non collinear calculations
   LSORBIT =      F    spin-orbit coupling
   INIWAV =      1    electr: 0-lowe 1-rand  2-diag
   LASPH  =      T    aspherical Exc in radial PAW
 Electronic Relaxation 1
   ENCUT  =  520.0 eV  38.22 Ry    6.18 a.u.  10.80 10.80 10.80*2*pi/ulx,y,z
   ENINI  =  520.0     initial cutoff
   ENAUG  =  537.2 eV  augmentation charge cutoff
   NELM   =   1000;   NELMIN=  2; NELMDL= -5     # of ELM steps 
   EDIFF  = 0.3E-03   stopping-criterion for ELM
   LREAL  =      T    real-space projection
   NLSPLINE    = F    spline interpolate recip. space projectors
   LCOMPAT=      F    compatible to vasp.4.4
   GGA_COMPAT  = T    GGA compatible to vasp.4.4-vasp.4.6
   LMAXPAW     = -100 max onsite density
   LMAXMIX     =    2 max onsite mixed and CHGCAR
   VOSKOWN=      0    Vosko Wilk Nusair interpolation
   ROPT   =   -0.00025  -0.00025  -0.00025
 Ionic relaxation
   EDIFFG = 0.3E-02   stopping-criterion for IOM
   NSW    =      0    number of steps for IOM
   NBLOCK =      1;   KBLOCK =      1    inner block; outer block 
   IBRION =     -1    ionic relax: 0-MD 1-quasi-New 2-CG
   NFREE  =      0    steps in history (QN), initial steepest desc. (CG)
   ISIF   =      3    stress and relaxation
   IWAVPR =     10    prediction:  0-non 1-charg 2-wave 3-comb
   ISYM   =      2    0-nonsym 1-usesym 2-fastsym
   LCORR  =      T    Harris-Foulkes like correction to forces

   POTIM  = 0.5000    time-step for ionic-motion
   TEIN   =    0.0    initial temperature
   TEBEG  =    0.0;   TEEND  =   0.0 temperature during run
   SMASS  =  -3.00    Nose mass-parameter (am)
   estimated Nose-frequenzy (Omega)   =  0.10E-29 period in steps = 0.13E+47 mass=  -0.771E-27a.u.
   SCALEE = 1.0000    scale energy and forces
   NPACO  =    256;   APACO  = 10.0  distance and # of slots for P.C.
   PSTRESS=    0.0 pullay stress

  Mass of Ions in am
   POMASS = 157.25 28.09192.22
  Ionic Valenz
   ZVAL   =  18.00  4.00  9.00
  Atomic Wigner-Seitz radii
   RWIGS  =  -1.00 -1.00 -1.00
  virtual crystal weights 
   VCA    =   1.00  1.00  1.00
   NELECT =      44.0000    total number of electrons
   NUPDOWN=      -1.0000    fix difference up-down

 DOS related values:
   EMIN   =  10.00;   EMAX   =-10.00  energy-range for DOS
   EFERMI =   0.00
   ISMEAR =    -5;   SIGMA  =   0.05  broadening in eV -4-tet -1-fermi 0-gaus

 Electronic relaxation 2 (details)
   IALGO  =     38    algorithm
   LDIAG  =      T    sub-space diagonalisation (order eigenvalues)
   LSUBROT=      F    optimize rotation matrix (better conditioning)
   TURBO    =      0    0=normal 1=particle mesh
   IRESTART =      0    0=no restart 2=restart with 2 vectors
   NREBOOT  =      0    no. of reboots
   NMIN     =      0    reboot dimension
   EREF     =   0.00    reference energy to select bands
   IMIX   =      4    mixing-type and parameters
     AMIX     =   0.40;   BMIX     =  1.00
     AMIX_MAG =   1.60;   BMIX_MAG =  1.00
     AMIN     =   0.10
     WC   =   100.;   INIMIX=   1;  MIXPRE=   1;  MAXMIX= -45

 Intra band minimization:
   WEIMIN = 0.0000     energy-eigenvalue tresh-hold
   EBREAK =  0.20E-05  absolut break condition
   DEPER  =   0.30     relativ break condition  

   TIME   =   0.40     timestep for ELM

  volume/ion in A,a.u.               =      16.89       113.98
  Fermi-wavevector in a.u.,A,eV,Ry     =   1.317337  2.489405 23.611221  1.735376
  Thomas-Fermi vector in A             =   2.447385
 
 Write flags
   LWAVE        =      F    write WAVECAR
   LDOWNSAMPLE  =      F    k-point downsampling of WAVECAR
   LCHARG       =      T    write CHGCAR
   LVTOT        =      F    write LOCPOT, total local potential
   LVHAR        =      T    write LOCPOT, Hartree potential only
   LELF         =      T    write electronic localiz. function (ELF)
   LORBIT       =     11    0 simple, 1 ext, 2 COOP (PROOUT), +10 PAW based schemes


 Dipole corrections
   LMONO  =      F    monopole corrections only (constant potential shift)
   LDIPOL =      F    correct potential (dipole corrections)
   IDIPOL =      0    1-x, 2-y, 3-z, 4-all directions 
   EPSILON=  1.0000000 bulk dielectric constant

 Exchange correlation treatment:
   GGA     =    --    GGA type
   LEXCH   =     8    internal setting for exchange type
   LIBXC   =     F    Libxc                    
   VOSKOWN =     0    Vosko Wilk Nusair interpolation
   LHFCALC =     F    Hartree Fock is set to
   LHFONE  =     F    Hartree Fock one center treatment
   AEXX    =    0.0000 exact exchange contribution

 Linear response parameters
   LEPSILON=     F    determine dielectric tensor
   LRPA    =     F    only Hartree local field effects (RPA)
   LNABLA  =     F    use nabla operator in PAW spheres
   LVEL    =     F    velocity operator in full k-point grid
   CSHIFT  =0.1000    complex shift for real part using Kramers Kronig
   OMEGAMAX=  -1.0    maximum frequency
   DEG_THRESHOLD= 0.2000000E-02 threshold for treating states as degnerate
   RTIME   =   -0.100 relaxation time in fs
  (WPLASMAI=    0.000 imaginary part of plasma frequency in eV, 0.658/RTIME)
   DFIELD  = 0.0000000 0.0000000 0.0000000 field for delta impulse in time
 
  Optional k-point grid parameters
   LKPOINTS_OPT  =     F    use optional k-point grid
   KPOINTS_OPT_MODE=     1    mode for optional k-point grid
 
 Orbital magnetization related:
   ORBITALMAG=     F  switch on orbital magnetization
   LCHIMAG   =     F  perturbation theory with respect to B field
   DQ        =  0.001000  dq finite difference perturbation B field
   LLRAUG    =     F  two centre corrections for induced B field



--------------------------------------------------------------------------------------------------------


 Static calculation
 charge density and potential will be updated during run
 spin polarized calculation
 Variant of blocked Davidson
 Davidson routine will perform the subspace rotation
 perform sub-space diagonalisation
    after iterative eigenvector-optimisation
 modified Broyden-mixing scheme, WC =      100.0
 initial mixing is a Kerker type mixing with AMIX =  0.4000 and BMIX =      1.0000
 Hartree-type preconditioning will be used
 using additional bands            10
 real space projection scheme for non local part
 use partial core corrections
 calculate Harris-corrections to forces 
   (improved forces if not selfconsistent)
 use gradient corrections 
 use of overlap-Matrix (Vanderbilt PP)
 Fermi weights with tetrahedron method with Bloechl corrections


--------------------------------------------------------------------------------------------------------


  energy-cutoff  :      520.00
  volume of cell :       84.45
      direct lattice vectors                 reciprocal lattice vectors
    -2.047391000  2.047391000  5.036459000     0.000000000  0.244213245  0.099276099
     2.047391000 -2.047391000  5.036459000     0.244213245  0.000000000  0.099276099
     2.047391000  2.047391000 -5.036459000     0.244213245  0.244213245  0.000000000

  length of vectors
     5.809435349  5.809435349  5.809435349     0.263620661  0.263620661  0.345369683


 
 k-points in units of 2pi/SCALE and weight: Kpoints from vasprun.xml                
   0.00000000  0.00000000  0.00000000       0.005
   0.00000000  0.04070221  0.01654602       0.037
   0.00000000  0.08140442  0.03309203       0.037
   0.00000000  0.12210662  0.04963805       0.019
   0.04070221  0.04070221  0.03309203       0.037
   0.04070221  0.08140442  0.04963805       0.074
   0.04070221  0.12210662  0.06618407       0.074
   0.04070221 -0.08140442 -0.01654602       0.074
   0.04070221 -0.04070221  0.00000000       0.019
   0.08140442  0.08140442  0.06618407       0.037
   0.08140442  0.12210662  0.08273008       0.074
   0.08140442 -0.08140442  0.00000000       0.019
   0.12210662  0.12210662  0.09927610       0.009
   0.08140442  0.08140442  0.03309203       0.037
   0.08140442  0.12210662  0.04963805       0.037
   0.08140442  0.00000000  0.00000000       0.019
   0.12210662  0.12210662  0.06618407       0.019
   0.12210662 -0.04070221  0.00000000       0.037
   0.12210662  0.00000000  0.01654602       0.037
   0.16280883  0.16280883  0.09927610       0.019
   0.16280883 -0.04070221  0.01654602       0.074
   0.16280883  0.00000000  0.03309203       0.037
  -0.04070221 -0.04070221 -0.06618407       0.037
  -0.04070221  0.00000000 -0.04963805       0.037
   0.00000000  0.00000000 -0.03309203       0.009
   0.16280883  0.00000000  0.00000000       0.019
   0.20351104  0.20351104  0.09927610       0.019
   0.20351104  0.00000000  0.01654602       0.037
   0.00000000  0.00000000 -0.06618407       0.009
   0.24421325  0.24421325  0.09927610       0.005
 
 k-points in reciprocal lattice and weights: Kpoints from vasprun.xml                
   0.00000000  0.00000000  0.00000000       0.005
   0.16666667  0.00000000  0.00000000       0.037
   0.33333333  0.00000000  0.00000000       0.037
   0.50000000  0.00000000  0.00000000       0.019
   0.16666667  0.16666667  0.00000000       0.037
   0.33333333  0.16666667  0.00000000       0.074
   0.50000000  0.16666667  0.00000000       0.074
  -0.33333333  0.16666667  0.00000000       0.074
  -0.16666667  0.16666667  0.00000000       0.019
   0.33333333  0.33333333  0.00000000       0.037
   0.50000000  0.33333333  0.00000000       0.074
  -0.33333333  0.33333333  0.00000000       0.019
   0.50000000  0.50000000  0.00000000       0.009
   0.16666667  0.16666667  0.16666667       0.037
   0.33333333  0.16666667  0.16666667       0.037
  -0.16666667  0.16666667  0.16666667       0.019
   0.33333333  0.33333333  0.16666667       0.019
  -0.33333333  0.33333333  0.16666667       0.037
  -0.16666667  0.33333333  0.16666667       0.037
   0.50000000  0.50000000  0.16666667       0.019
  -0.33333333  0.50000000  0.16666667       0.074
  -0.16666667  0.50000000  0.16666667       0.037
  -0.33333333 -0.33333333  0.16666667       0.037
  -0.16666667 -0.33333333  0.16666667       0.037
  -0.16666667 -0.16666667  0.16666667       0.009
  -0.33333333  0.33333333  0.33333333       0.019
   0.50000000  0.50000000  0.33333333       0.019
  -0.33333333  0.50000000  0.33333333       0.037
  -0.33333333 -0.33333333  0.33333333       0.009
   0.50000000  0.50000000  0.50000000       0.005
 
 position of ions in fractional coordinates (direct lattice) 
   0.00000000  0.00000000  0.00000000
   0.62207800  0.62207800  0.00000000
   0.37792200  0.37792200  0.00000000
   0.25000000  0.75000000  0.50000000
   0.75000000  0.25000000  0.50000000
 
 position of ions in cartesian coordinates  (Angst):
   0.00000000  0.00000000  0.00000000
   0.00000000 -0.00000000  6.26614068
  -0.00000000  0.00000000  3.80677732
   2.04739100  0.00000000  2.51822950
   0.00000000  2.04739100  2.51822950
 


--------------------------------------------------------------------------------------------------------


 k-point   1 :   0.0000 0.0000 0.0000  plane waves:    2291
 k-point   2 :   0.1667 0.0000 0.0000  plane waves:    2276
 k-point   3 :   0.3333 0.0000 0.0000  plane waves:    2275
 k-point   4 :   0.5000 0.0000 0.0000  plane waves:    2274
 k-point   5 :   0.1667 0.1667 0.0000  plane waves:    2273
 k-point   6 :   0.3333 0.1667 0.0000  plane waves:    2273
 k-point   7 :   0.5000 0.1667 0.0000  plane waves:    2274
 k-point   8 :  -0.3333 0.1667 0.0000  plane waves:    2270
 k-point   9 :  -0.1667 0.1667 0.0000  plane waves:    2273
 k-point  10 :   0.3333 0.3333 0.0000  plane waves:    2264
 k-point  11 :   0.5000 0.3333 0.0000  plane waves:    2266
 k-point  12 :  -0.3333 0.3333 0.0000  plane waves:    2267
 k-point  13 :   0.5000 0.5000 0.0000  plane waves:    2262
 k-point  14 :   0.1667 0.1667 0.1667  plane waves:    2273
 k-point  15 :   0.3333 0.1667 0.1667  plane waves:    2264
 k-point  16 :  -0.1667 0.1667 0.1667  plane waves:    2283
 k-point  17 :   0.3333 0.3333 0.1667  plane waves:    2264
 k-point  18 :  -0.3333 0.3333 0.1667  plane waves:    2268
 k-point  19 :  -0.1667 0.3333 0.1667  plane waves:    2278
 k-point  20 :   0.5000 0.5000 0.1667  plane waves:    2270
 k-point  21 :  -0.3333 0.5000 0.1667  plane waves:    2277
 k-point  22 :  -0.1667 0.5000 0.1667  plane waves:    2269
 k-point  23 :  -0.3333-0.3333 0.1667  plane waves:    2293
 k-point  24 :  -0.1667-0.3333 0.1667  plane waves:    2282
 k-point  25 :  -0.1667-0.1667 0.1667  plane waves:    2271
 k-point  26 :  -0.3333 0.3333 0.3333  plane waves:    2294
 k-point  27 :   0.5000 0.5000 0.3333  plane waves:    2288
 k-point  28 :  -0.3333 0.5000 0.3333  plane waves:    2281
 k-point  29 :  -0.3333-0.3333 0.3333  plane waves:    2267
 k-point  30 :   0.5000 0.5000 0.5000  plane waves:    2274

 maximum and minimum number of plane-waves per node :      2294     2262

 maximum number of plane-waves:      2294
 maximum index in each direction: 
   IXMAX=   11   IYMAX=   11   IZMAX=   10
   IXMIN=  -11   IYMIN=  -11   IZMIN=  -11


 serial   3D FFT for wavefunctions
 parallel 3D FFT for charge:
    minimum data exchange during FFTs selected (reduces bandwidth)


 total amount of memory used by VASP MPI-rank0   127574. kBytes
=======================================================================

   base      :      30000. kBytes
   nonlr-proj:      17067. kBytes
   fftplans  :      33021. kBytes
   grid      :      28717. kBytes
   one-center:        491. kBytes
   wavefun   :      18278. kBytes
 
     INWAV:  cpu time      0.0001: real time      0.0003
 Broyden mixing: mesh for mixing (old mesh)
   NGX = 21   NGY = 21   NGZ = 21
  (NGX  = 96   NGY  = 96   NGZ  = 96)
  gives a total of   9261 points

 charge density for first step will be calculated from the start-wavefunctions


--------------------------------------------------------------------------------------------------------


 Maximum index for non-local projection operator         22931
 Maximum index for augmentation-charges        183787 (set IRDMAX)


--------------------------------------------------------------------------------------------------------


 initial charge from wavefunction
 First call to EWALD:  gamma=   0.404
 Maximum number of real-space cells 3x 3x 4
 Maximum number of reciprocal cells 3x 3x 3

    FEWALD:  cpu time      0.0005: real time      0.0005


--------------------------------------- Iteration      1(   1)  ---------------------------------------


    POTLOK:  cpu time      0.1758: real time      0.2006
    SETDIJ:  cpu time      1.5584: real time      1.5594
     EDDAV:  cpu time      2.8162: real time      2.8183
 BZINTS: Fermi energy:    5.780742;   44.000000 electrons
         Band energy:-0.100320E+04;  BLOECHL correction:   -0.276017
       DOS:  cpu time      0.0908: real time      0.0908
    --------------------------------------------
      LOOP:  cpu time      4.6412: real time      4.6691

 eigenvalue-minimisations  :  5440
 total energy-change (2. order) :-0.3784767E+03  (-0.2541738E+04)
 number of electron      44.0000000 magnetization      -0.0000000
 augmentation part        1.7079258 magnetization      -0.0115692

 Free energy of the ion-electron system (eV)
  ---------------------------------------------------
  alpha Z        PSCENC =       306.13626819
  Ewald energy   TEWEN  =     -3699.66047018
  -Hartree energ DENC   =      -399.76454824
  -exchange      EXHF   =         0.00000000
  -V(xc)+E(xc)   XCENC  =        30.30363169
  PAW double counting   =    342315.37010194  -342301.76359914
  entropy T*S    EENTRO =         0.00000000
  eigenvalues    EBANDS =     -1003.19600551
  atomic energy  EATOM  =      4374.09793954
  Solvation  Ediel_sol  =         0.00000000
  ---------------------------------------------------
  free energy    TOTEN  =      -378.47668171 eV

  energy without entropy =     -378.47668171  energy(sigma->0) =     -378.47668171


--------------------------------------------------------------------------------------------------------




--------------------------------------- Iteration      1(   2)  ---------------------------------------


     EDDAV:  cpu time      2.2284: real time      2.2307
 BZINTS: Fermi energy:   -6.853616;   44.000000 electrons
         Band energy:-0.155285E+04;  BLOECHL correction:   -0.174162
       DOS:  cpu time      0.0861: real time      0.0862
    --------------------------------------------
      LOOP:  cpu time      2.3145: real time      2.3169

 eigenvalue-minimisations  :  3952
 total energy-change (2. order) :-0.5496519E+03  (-0.5329066E+03)
 number of electron      44.0000000 magnetization      -0.0000000
 augmentation part        1.7079258 magnetization      -0.0115692

 Free energy of the ion-electron system (eV)
  ---------------------------------------------------
  alpha Z        PSCENC =       306.13626819
  Ewald energy   TEWEN  =     -3699.66047018
  -Hartree energ DENC   =      -399.76454824
  -exchange      EXHF   =         0.00000000
  -V(xc)+E(xc)   XCENC  =        30.30363169
  PAW double counting   =    342315.37010194  -342301.76359914
  entropy T*S    EENTRO =         0.00000000
  eigenvalues    EBANDS =     -1552.84795317
  atomic energy  EATOM  =      4374.09793954
  Solvation  Ediel_sol  =         0.00000000
  ---------------------------------------------------
  free energy    TOTEN  =      -928.12862936 eV

  energy without entropy =     -928.12862936  energy(sigma->0) =     -928.12862936


--------------------------------------------------------------------------------------------------------




--------------------------------------- Iteration      1(   3)  ---------------------------------------


     EDDAV:  cpu time      2.6955: real time      2.6976
 BZINTS: Fermi energy:  -10.705854;   44.000000 electrons
         Band energy:-0.160565E+04;  BLOECHL correction:   -0.021366
       DOS:  cpu time      0.0716: real time      0.0716
    --------------------------------------------
      LOOP:  cpu time      2.7671: real time      2.7692

 eigenvalue-minimisations  :  5168
 total energy-change (2. order) :-0.5280204E+02  (-0.5150932E+02)
 number of electron      44.0000000 magnetization      -0.0000000
 augmentation part        1.7079258 magnetization      -0.0115692

 Free energy of the ion-electron system (eV)
  ---------------------------------------------------
  alpha Z        PSCENC =       306.13626819
  Ewald energy   TEWEN  =     -3699.66047018
  -Hartree energ DENC   =      -399.76454824
  -exchange      EXHF   =         0.00000000
  -V(xc)+E(xc)   XCENC  =        30.30363169
  PAW double counting   =    342315.37010194  -342301.76359914
  entropy T*S    EENTRO =         0.00000000
  eigenvalues    EBANDS =     -1605.64999227
  atomic energy  EATOM  =      4374.09793954
  Solvation  Ediel_sol  =         0.00000000
  ---------------------------------------------------
  free energy    TOTEN  =      -980.93066847 eV

  energy without entropy =     -980.93066847  energy(sigma->0) =     -980.93066847


--------------------------------------------------------------------------------------------------------




--------------------------------------- Iteration      1(   4)  ---------------------------------------


     EDDAV:  cpu time      2.8113: real time      2.8142
 BZINTS: Fermi energy:  -11.097657;   44.000000 electrons
         Band energy:-0.160765E+04;  BLOECHL correction:   -0.000697
       DOS:  cpu time      0.0616: real time      0.0617
    --------------------------------------------
      LOOP:  cpu time      2.8729: real time      2.8758

 eigenvalue-minimisations  :  5472
 total energy-change (2. order) :-0.1995059E+01  (-0.1806251E+01)
 number of electron      44.0000000 magnetization      -0.0000000
 augmentation part        1.7079258 magnetization      -0.0115692

 Free energy of the ion-electron system (eV)
  ---------------------------------------------------
  alpha Z        PSCENC =       306.13626819
  Ewald energy   TEWEN  =     -3699.66047018
  -Hartree energ DENC   =      -399.76454824
  -exchange      EXHF   =         0.00000000
  -V(xc)+E(xc)   XCENC  =        30.30363169
  PAW double counting   =    342315.37010194  -342301.76359914
  entropy T*S    EENTRO =         0.00000000
  eigenvalues    EBANDS =     -1607.64505141
  atomic energy  EATOM  =      4374.09793954
  Solvation  Ediel_sol  =         0.00000000
  ---------------------------------------------------
  free energy    TOTEN  =      -982.92572761 eV

  energy without entropy =     -982.92572761  energy(sigma->0) =     -982.92572761


--------------------------------------------------------------------------------------------------------




--------------------------------------- Iteration      1(   5)  ---------------------------------------


     EDDAV:  cpu time      2.6473: real time      2.6493
 BZINTS: Fermi energy:  -11.111748;   44.000000 electrons
         Band energy:-0.160776E+04;  BLOECHL correction:   -0.001085
       DOS:  cpu time      0.0634: real time      0.0634
    CHARGE:  cpu time      0.2315: real time      0.2316
    MIXING:  cpu time      0.0020: real time      0.0020
    --------------------------------------------
      LOOP:  cpu time      2.9442: real time      2.9463

 eigenvalue-minimisations  :  5096
 total energy-change (2. order) :-0.1183340E+00  (-0.1138356E+00)
 number of electron      44.0000001 magnetization      -0.0225206
 augmentation part       26.0615520 magnetization      -0.0169574

 Broyden mixing:
  rms(total) = 0.29222E+02    rms(broyden)= 0.29211E+02
  rms(prec ) = 0.38087E+02
  weight for this iteration     100.00

 Free energy of the ion-electron system (eV)
  ---------------------------------------------------
  alpha Z        PSCENC =       306.13626819
  Ewald energy   TEWEN  =     -3699.66047018
  -Hartree energ DENC   =      -399.76454824
  -exchange      EXHF   =         0.00000000
  -V(xc)+E(xc)   XCENC  =        30.30363169
  PAW double counting   =    342315.37010194  -342301.76359914
  entropy T*S    EENTRO =         0.00000000
  eigenvalues    EBANDS =     -1607.76338544
  atomic energy  EATOM  =      4374.09793954
  Solvation  Ediel_sol  =         0.00000000
  ---------------------------------------------------
  free energy    TOTEN  =      -983.04406164 eV

  energy without entropy =     -983.04406164  energy(sigma->0) =     -983.04406164


--------------------------------------------------------------------------------------------------------




--------------------------------------- Iteration      1(   6)  ---------------------------------------


    POTLOK:  cpu time      0.0084: real time      0.0094
    SETDIJ:  cpu time      1.5551: real time      1.5557
     EDDAV:  cpu time      3.0531: real time      3.0544
 BZINTS: Fermi energy:   11.693497;   44.000000 electrons
         Band energy:-0.115087E+03;  BLOECHL correction:   -0.136588
       DOS:  cpu time      0.0871: real time      0.0871
    CHARGE:  cpu time      0.2238: real time      0.2239
    MIXING:  cpu time      0.0025: real time      0.0555
    --------------------------------------------
      LOOP:  cpu time      4.9300: real time      4.9860

 eigenvalue-minimisations  :  6080
 total energy-change (2. order) : 0.6672342E+03  (-0.3926402E+03)
 number of electron      44.0000000 magnetization      -0.0151428
 augmentation part        8.1710666 magnetization      -0.0045592

 Broyden mixing:
  rms(total) = 0.31249E+02    rms(broyden)= 0.31249E+02
  rms(prec ) = 0.36302E+02
  weight for this iteration     100.00

 eigenvalues of (default mixing * dielectric matrix)
  average eigenvalue GAMMA=   0.4729
  0.4729

 Free energy of the ion-electron system (eV)
  ---------------------------------------------------
  alpha Z        PSCENC =       306.13626819
  Ewald energy   TEWEN  =     -3699.66047018
  -Hartree energ DENC   =      -964.72742550
  -exchange      EXHF   =         0.00000000
  -V(xc)+E(xc)   XCENC  =        40.94726189
  PAW double counting   =    151400.26161734  -151657.77774688
  entropy T*S    EENTRO =         0.00000000
  eigenvalues    EBANDS =      -115.08731054
  atomic energy  EATOM  =      4374.09793954
  Solvation  Ediel_sol  =         0.00000000
  ---------------------------------------------------
  free energy    TOTEN  =      -315.80986614 eV

  energy without entropy =     -315.80986614  energy(sigma->0) =     -315.80986614


--------------------------------------------------------------------------------------------------------




--------------------------------------- Iteration      1(   7)  ---------------------------------------


    POTLOK:  cpu time      0.0084: real time      0.0087
    SETDIJ:  cpu time      1.5502: real time      1.5508
     EDDAV:  cpu time      3.6926: real time      3.6949
 BZINTS: Fermi energy:    4.150748;   44.000000 electrons
         Band energy:-0.206186E+03;  BLOECHL correction:   -0.189211
       DOS:  cpu time      0.0806: real time      0.0807
    CHARGE:  cpu time      0.2236: real time      0.2237
    MIXING:  cpu time      0.0021: real time      0.0021
    --------------------------------------------
      LOOP:  cpu time      5.5575: real time      5.5609

 eigenvalue-minimisations  :  7656
 total energy-change (2. order) : 0.2076393E+03  (-0.1661165E+03)
 number of electron      44.0000001 magnetization      -0.0163978
 augmentation part       18.8168386 magnetization       0.0194465

 Broyden mixing:
  rms(total) = 0.40057E+02    rms(broyden)= 0.40057E+02
  rms(prec ) = 0.41899E+02
  weight for this iteration     100.00

 eigenvalues of (default mixing * dielectric matrix)
  average eigenvalue GAMMA=   0.3369
  0.5474  0.1265

 Free energy of the ion-electron system (eV)
  ---------------------------------------------------
  alpha Z        PSCENC =       306.13626819
  Ewald energy   TEWEN  =     -3699.66047018
  -Hartree energ DENC   =      -776.76808408
  -exchange      EXHF   =         0.00000000
  -V(xc)+E(xc)   XCENC  =        33.87620395
  PAW double counting   =    113652.04440936  -113791.71046433
  entropy T*S    EENTRO =         0.00000000
  eigenvalues    EBANDS =      -206.18636364
  atomic energy  EATOM  =      4374.09793954
  Solvation  Ediel_sol  =         0.00000000
  ---------------------------------------------------
  free energy    TOTEN  =      -108.17056119 eV

  energy without entropy =     -108.17056119  energy(sigma->0) =     -108.17056119


--------------------------------------------------------------------------------------------------------




--------------------------------------- Iteration      1(   8)  ---------------------------------------


    POTLOK:  cpu time      0.0082: real time      0.0088
    SETDIJ:  cpu time      1.5522: real time      1.5526
     EDDAV:  cpu time      2.6093: real time      2.6107
 BZINTS: Fermi energy:    3.454367;   44.000000 electrons
         Band energy:-0.177339E+03;  BLOECHL correction:   -0.120746
       DOS:  cpu time      0.0750: real time      0.0751
    CHARGE:  cpu time      0.2245: real time      0.2246
    MIXING:  cpu time      0.0020: real time      0.0020
    --------------------------------------------
      LOOP:  cpu time      4.4712: real time      4.4739

 eigenvalue-minimisations  :  4928
 total energy-change (2. order) : 0.5276741E+01  (-0.1478280E+02)
 number of electron      44.0000001 magnetization      -0.1940203
 augmentation part       18.3830847 magnetization      -0.1973449

 Broyden mixing:
  rms(total) = 0.41004E+02    rms(broyden)= 0.41004E+02
  rms(prec ) = 0.42757E+02
  weight for this iteration     100.00

 eigenvalues of (default mixing * dielectric matrix)
  average eigenvalue GAMMA=   0.4574
  0.4988  0.6268  0.2465

 Free energy of the ion-electron system (eV)
  ---------------------------------------------------
  alpha Z        PSCENC =       306.13626819
  Ewald energy   TEWEN  =     -3699.66047018
  -Hartree energ DENC   =      -792.40112958
  -exchange      EXHF   =         0.00000000
  -V(xc)+E(xc)   XCENC  =        34.42222096
  PAW double counting   =    111877.32506951  -112025.47450486
  entropy T*S    EENTRO =         0.00000000
  eigenvalues    EBANDS =      -177.33921373
  atomic energy  EATOM  =      4374.09793954
  Solvation  Ediel_sol  =         0.00000000
  ---------------------------------------------------
  free energy    TOTEN  =      -102.89382015 eV

  energy without entropy =     -102.89382015  energy(sigma->0) =     -102.89382015


--------------------------------------------------------------------------------------------------------




--------------------------------------- Iteration      1(   9)  ---------------------------------------


    POTLOK:  cpu time      0.0083: real time      0.0091
    SETDIJ:  cpu time      1.5484: real time      1.5490
     EDDAV:  cpu time      3.0367: real time      3.0381
 BZINTS: Fermi energy:    4.978941;   44.000000 electrons
         Band energy:-0.192014E+03;  BLOECHL correction:   -0.076084
       DOS:  cpu time      0.0751: real time      0.0751
    CHARGE:  cpu time      0.2245: real time      0.2246
    MIXING:  cpu time      0.0021: real time      0.0021
    --------------------------------------------
      LOOP:  cpu time      4.8951: real time      4.8980

 eigenvalue-minimisations  :  6064
 total energy-change (2. order) :-0.1912281E+02  (-0.2447665E+01)
 number of electron      44.0000001 magnetization      -0.9422302
 augmentation part       16.7888463 magnetization      -0.9034351

 Broyden mixing:
  rms(total) = 0.42936E+02    rms(broyden)= 0.42936E+02
  rms(prec ) = 0.45094E+02
  weight for this iteration     100.00

 eigenvalues of (default mixing * dielectric matrix)
  average eigenvalue GAMMA=   0.7925
  1.4325  0.6134  0.5620  0.5620

 Free energy of the ion-electron system (eV)
  ---------------------------------------------------
  alpha Z        PSCENC =       306.13626819
  Ewald energy   TEWEN  =     -3699.66047018
  -Hartree energ DENC   =      -751.33647056
  -exchange      EXHF   =         0.00000000
  -V(xc)+E(xc)   XCENC  =        32.91512581
  PAW double counting   =    128084.00936982  -128276.16481525
  entropy T*S    EENTRO =         0.00000000
  eigenvalues    EBANDS =      -192.01357695
  atomic energy  EATOM  =      4374.09793954
  Solvation  Ediel_sol  =         0.00000000
  ---------------------------------------------------
  free energy    TOTEN  =      -122.01662957 eV

  energy without entropy =     -122.01662957  energy(sigma->0) =     -122.01662957


--------------------------------------------------------------------------------------------------------




--------------------------------------- Iteration      1(  10)  ---------------------------------------


    POTLOK:  cpu time      0.0083: real time      0.0087
    SETDIJ:  cpu time      1.5483: real time      1.5490
     EDDAV:  cpu time      2.4810: real time      2.4827
 BZINTS: Fermi energy:    2.952692;   44.000000 electrons
         Band energy:-0.898690E+03;  BLOECHL correction:   -0.096185
       DOS:  cpu time      0.0769: real time      0.0770
    CHARGE:  cpu time      0.2251: real time      0.2252
    MIXING:  cpu time      0.0022: real time      0.0022
    --------------------------------------------
      LOOP:  cpu time      4.3419: real time      4.3448

 eigenvalue-minimisations  :  4616
 total energy-change (2. order) :-0.4092158E+03  (-0.3185414E+02)
 number of electron      44.0000001 magnetization       1.7887909
 augmentation part       16.9422054 magnetization       2.2916053

 Broyden mixing:
  rms(total) = 0.65198E+02    rms(broyden)= 0.65198E+02
  rms(prec ) = 0.71207E+02
  weight for this iteration     100.00

 eigenvalues of (default mixing * dielectric matrix)
  average eigenvalue GAMMA=   1.1723
  1.8320  1.8320  0.8440  0.8440  0.5094

 Free energy of the ion-electron system (eV)
  ---------------------------------------------------
  alpha Z        PSCENC =       306.13626819
  Ewald energy   TEWEN  =     -3699.66047018
  -Hartree energ DENC   =      -364.79320472
  -exchange      EXHF   =         0.00000000
  -V(xc)+E(xc)   XCENC  =        21.22894810
  PAW double counting   =    272415.73254255  -272685.28424449
  entropy T*S    EENTRO =         0.00000000
  eigenvalues    EBANDS =      -898.69024677
  atomic energy  EATOM  =      4374.09793954
  Solvation  Ediel_sol  =         0.00000000
  ---------------------------------------------------
  free energy    TOTEN  =      -531.23246779 eV

  energy without entropy =     -531.23246779  energy(sigma->0) =     -531.23246779


--------------------------------------------------------------------------------------------------------




--------------------------------------- Iteration      1(  11)  ---------------------------------------


    POTLOK:  cpu time      0.0085: real time      0.0090
    SETDIJ:  cpu time      1.4216: real time      1.4222
     EDDAV:  cpu time      2.9495: real time      2.9538
 BZINTS: Fermi energy:   13.423434;   44.000000 electrons
         Band energy: 0.170354E+03;  BLOECHL correction:   -0.244647
       DOS:  cpu time      0.0942: real time      0.0943
    CHARGE:  cpu time      0.2239: real time      0.2240
    MIXING:  cpu time      0.0024: real time      0.0024
    --------------------------------------------
      LOOP:  cpu time      4.7001: real time      4.7057

 eigenvalue-minimisations  :  5896
 total energy-change (2. order) :-0.1332809E+03  (-0.1156188E+04)
 number of electron      44.0000001 magnetization       2.2377770
 augmentation part        6.7868584 magnetization       2.1734836

 Broyden mixing:
  rms(total) = 0.29425E+02    rms(broyden)= 0.29425E+02
  rms(prec ) = 0.37826E+02
  weight for this iteration     100.00

 eigenvalues of (default mixing * dielectric matrix)
  average eigenvalue GAMMA=   1.1055
  2.4385  0.9495  0.9495  1.2814  0.5070  0.5070

 Free energy of the ion-electron system (eV)
  ---------------------------------------------------
  alpha Z        PSCENC =       306.13626819
  Ewald energy   TEWEN  =     -3699.66047018
  -Hartree energ DENC   =     -1898.60759599
  -exchange      EXHF   =         0.00000000
  -V(xc)+E(xc)   XCENC  =        76.42235013
  PAW double counting   =      5614.11679170    -5607.37237333
  entropy T*S    EENTRO =         0.00000000
  eigenvalues    EBANDS =       170.35373166
  atomic energy  EATOM  =      4374.09793954
  Solvation  Ediel_sol  =         0.00000000
  ---------------------------------------------------
  free energy    TOTEN  =      -664.51335828 eV

  energy without entropy =     -664.51335828  energy(sigma->0) =     -664.51335828


--------------------------------------------------------------------------------------------------------




--------------------------------------- Iteration      1(  12)  ---------------------------------------


    POTLOK:  cpu time      0.0081: real time      0.0102
    SETDIJ:  cpu time      1.4081: real time      1.4087
     EDDAV:  cpu time      3.4018: real time      3.4031
 BZINTS: Fermi energy:   12.180595;   44.000000 electrons
         Band energy: 0.525792E+02;  BLOECHL correction:   -0.103063
       DOS:  cpu time      0.0919: real time      0.0919
    CHARGE:  cpu time      0.2241: real time      0.2242
    MIXING:  cpu time      0.0022: real time      0.0022
    --------------------------------------------
      LOOP:  cpu time      5.1362: real time      5.1403

 eigenvalue-minimisations  :  6952
 total energy-change (2. order) :-0.8345356E+03  (-0.1240487E+03)
 number of electron      44.0000004 magnetization       1.1984373
 augmentation part        7.9836792 magnetization       1.0474370

 Broyden mixing:
  rms(total) = 0.91167E+02    rms(broyden)= 0.91167E+02
  rms(prec ) = 0.98198E+02
  weight for this iteration     100.00

 eigenvalues of (default mixing * dielectric matrix)
  average eigenvalue GAMMA=   1.0305
  2.5773  0.9565  0.9565  0.7939  0.7939  0.5677  0.5677

 Free energy of the ion-electron system (eV)
  ---------------------------------------------------
  alpha Z        PSCENC =       306.13626819
  Ewald energy   TEWEN  =     -3699.66047018
  -Hartree energ DENC   =     -3156.71170289
  -exchange      EXHF   =         0.00000000
  -V(xc)+E(xc)   XCENC  =       130.51257780
  PAW double counting   =    198741.25119071  -198247.25402288
  entropy T*S    EENTRO =         0.00000000
  eigenvalues    EBANDS =        52.57924706
  atomic energy  EATOM  =      4374.09793954
  Solvation  Ediel_sol  =         0.00000000
  ---------------------------------------------------
  free energy    TOTEN  =     -1499.04897266 eV

  energy without entropy =    -1499.04897266  energy(sigma->0) =    -1499.04897266


--------------------------------------------------------------------------------------------------------




--------------------------------------- Iteration      1(  13)  ---------------------------------------


    POTLOK:  cpu time      0.0084: real time      0.0090
    SETDIJ:  cpu time      1.4230: real time      1.4235
     EDDAV:  cpu time      2.8347: real time      2.8364
 BZINTS: Fermi energy:   12.004859;   44.000000 electrons
         Band energy: 0.320985E+02;  BLOECHL correction:   -0.131621
       DOS:  cpu time      0.0841: real time      0.0841
    CHARGE:  cpu time      0.2254: real time      0.2256
    MIXING:  cpu time      0.0022: real time      0.0022
    --------------------------------------------
      LOOP:  cpu time      4.5777: real time      4.5807

 eigenvalue-minimisations  :  5536
 total energy-change (2. order) : 0.2915449E+03  (-0.1652353E+02)
 number of electron      44.0000000 magnetization      -0.4315550
 augmentation part        7.8539781 magnetization      -0.4767429

 Broyden mixing:
  rms(total) = 0.65644E+02    rms(broyden)= 0.65644E+02
  rms(prec ) = 0.73976E+02
  weight for this iteration     100.00

 eigenvalues of (default mixing * dielectric matrix)
  average eigenvalue GAMMA=   0.9810
  2.6189  1.0346  1.0346  0.7384  0.7384  0.7697  0.4566  0.4566

 Free energy of the ion-electron system (eV)
  ---------------------------------------------------
  alpha Z        PSCENC =       306.13626819
  Ewald energy   TEWEN  =     -3699.66047018
  -Hartree energ DENC   =     -2568.90040404
  -exchange      EXHF   =         0.00000000
  -V(xc)+E(xc)   XCENC  =       103.95307994
  PAW double counting   =     98469.22698935   -98224.45598609
  entropy T*S    EENTRO =         0.00000000
  eigenvalues    EBANDS =        32.09853163
  atomic energy  EATOM  =      4374.09793954
  Solvation  Ediel_sol  =         0.00000000
  ---------------------------------------------------
  free energy    TOTEN  =     -1207.50405168 eV

  energy without entropy =    -1207.50405168  energy(sigma->0) =    -1207.50405168


--------------------------------------------------------------------------------------------------------




--------------------------------------- Iteration      1(  14)  ---------------------------------------


    POTLOK:  cpu time      0.0080: real time      0.0092
    SETDIJ:  cpu time      1.4213: real time      1.4218
     EDDAV:  cpu time      3.2032: real time      3.2047
 BZINTS: Fermi energy:   11.522379;   44.000000 electrons
         Band energy: 0.293088E+02;  BLOECHL correction:   -0.169831
       DOS:  cpu time      0.0921: real time      0.0921
    CHARGE:  cpu time      0.2244: real time      0.2244
    MIXING:  cpu time      0.0023: real time      0.0023
    --------------------------------------------
      LOOP:  cpu time      4.9513: real time      4.9546

 eigenvalue-minimisations  :  6424
 total energy-change (2. order) : 0.8192556E+03  (-0.4812829E+02)
 number of electron      43.9999999 magnetization      -0.1812890
 augmentation part        7.7682807 magnetization      -0.0525185

 Broyden mixing:
  rms(total) = 0.15854E+02    rms(broyden)= 0.15854E+02
  rms(prec ) = 0.25828E+02
  weight for this iteration     100.00

 eigenvalues of (default mixing * dielectric matrix)
  average eigenvalue GAMMA=   1.0368
  2.8083  1.2245  1.2245  0.7345  0.7345  0.9379  0.5426  0.5625  0.5625

 Free energy of the ion-electron system (eV)
  ---------------------------------------------------
  alpha Z        PSCENC =       306.13626819
  Ewald energy   TEWEN  =     -3699.66047018
  -Hartree energ DENC   =     -1309.73490238
  -exchange      EXHF   =         0.00000000
  -V(xc)+E(xc)   XCENC  =        54.60639018
  PAW double counting   =      5531.12748888    -5674.12996013
  entropy T*S    EENTRO =         0.00000000
  eigenvalues    EBANDS =        29.30876589
  atomic energy  EATOM  =      4374.09793954
  Solvation  Ediel_sol  =         0.00000000
  ---------------------------------------------------
  free energy    TOTEN  =      -388.24848002 eV

  energy without entropy =     -388.24848002  energy(sigma->0) =     -388.24848002


--------------------------------------------------------------------------------------------------------




--------------------------------------- Iteration      1(  15)  ---------------------------------------


    POTLOK:  cpu time      0.0078: real time      0.0088
    SETDIJ:  cpu time      1.4233: real time      1.4238
     EDDAV:  cpu time      2.9263: real time      2.9279
 BZINTS: Fermi energy:   11.324431;   44.000000 electrons
         Band energy: 0.489721E+02;  BLOECHL correction:   -0.120134
       DOS:  cpu time      0.0896: real time      0.0896
    CHARGE:  cpu time      0.2251: real time      0.2252
    MIXING:  cpu time      0.0024: real time      0.0024
    --------------------------------------------
      LOOP:  cpu time      4.6746: real time      4.6778

 eigenvalue-minimisations  :  5752
 total energy-change (2. order) : 0.9334333E+02  (-0.9261156E+01)
 number of electron      44.0000001 magnetization      -0.3905241
 augmentation part        7.2797525 magnetization      -0.2978742

 Broyden mixing:
  rms(total) = 0.12139E+02    rms(broyden)= 0.12139E+02
  rms(prec ) = 0.21984E+02
  weight for this iteration     100.00

 eigenvalues of (default mixing * dielectric matrix)
  average eigenvalue GAMMA=   1.0459
  2.7564  1.2647  1.2647  0.8050  0.8050  1.0360  0.7543  0.7543  0.5095  0.5095

 Free energy of the ion-electron system (eV)
  ---------------------------------------------------
  alpha Z        PSCENC =       306.13626819
  Ewald energy   TEWEN  =     -3699.66047018
  -Hartree energ DENC   =     -1246.58861821
  -exchange      EXHF   =         0.00000000
  -V(xc)+E(xc)   XCENC  =        51.75065536
  PAW double counting   =      5280.39867072    -5410.01174195
  entropy T*S    EENTRO =         0.00000000
  eigenvalues    EBANDS =        48.97214242
  atomic energy  EATOM  =      4374.09793954
  Solvation  Ediel_sol  =         0.00000000
  ---------------------------------------------------
  free energy    TOTEN  =      -294.90515411 eV

  energy without entropy =     -294.90515411  energy(sigma->0) =     -294.90515411


--------------------------------------------------------------------------------------------------------




--------------------------------------- Iteration      1(  16)  ---------------------------------------


    POTLOK:  cpu time      0.0083: real time      0.0090
    SETDIJ:  cpu time      1.5463: real time      1.5470
     EDDAV:  cpu time      2.7108: real time      2.7120
 BZINTS: Fermi energy:   11.765639;   44.000000 electrons
         Band energy: 0.865978E+01;  BLOECHL correction:   -0.131773
       DOS:  cpu time      0.0827: real time      0.0827
    CHARGE:  cpu time      0.2243: real time      0.2244
    MIXING:  cpu time      0.0024: real time      0.0024
    --------------------------------------------
      LOOP:  cpu time      4.5749: real time      4.5775

 eigenvalue-minimisations  :  5232
 total energy-change (2. order) : 0.2051985E+03  (-0.8714922E+01)
 number of electron      44.0000000 magnetization      -0.4839308
 augmentation part        7.1920824 magnetization      -0.3847842

 Broyden mixing:
  rms(total) = 0.59271E+01    rms(broyden)= 0.59271E+01
  rms(prec ) = 0.15612E+02
  weight for this iteration     100.00

 eigenvalues of (default mixing * dielectric matrix)
  average eigenvalue GAMMA=   1.0055
  2.8386  1.3050  1.3050  0.8567  0.8567  1.1021  0.7483  0.7483  0.5018  0.5018
  0.2965

 Free energy of the ion-electron system (eV)
  ---------------------------------------------------
  alpha Z        PSCENC =       306.13626819
  Ewald energy   TEWEN  =     -3699.66047018
  -Hartree energ DENC   =      -976.28474396
  -exchange      EXHF   =         0.00000000
  -V(xc)+E(xc)   XCENC  =        42.10757871
  PAW double counting   =      4776.25188556    -4921.01487493
  entropy T*S    EENTRO =         0.00000000
  eigenvalues    EBANDS =         8.65978265
  atomic energy  EATOM  =      4374.09793954
  Solvation  Ediel_sol  =         0.00000000
  ---------------------------------------------------
  free energy    TOTEN  =       -89.70663442 eV

  energy without entropy =      -89.70663442  energy(sigma->0) =      -89.70663442


--------------------------------------------------------------------------------------------------------




--------------------------------------- Iteration      1(  17)  ---------------------------------------


    POTLOK:  cpu time      0.0078: real time      0.0091
    SETDIJ:  cpu time      1.5500: real time      1.5508
     EDDAV:  cpu time      2.8999: real time      2.9020
 BZINTS: Fermi energy:    3.581571;   44.000000 electrons
         Band energy:-0.942673E+02;  BLOECHL correction:   -0.216770
       DOS:  cpu time      0.0788: real time      0.0788
    CHARGE:  cpu time      0.2254: real time      0.2255
    MIXING:  cpu time      0.0025: real time      0.0025
    --------------------------------------------
      LOOP:  cpu time      4.7644: real time      4.7688

 eigenvalue-minimisations  :  5688
 total energy-change (2. order) : 0.1676675E+02  (-0.2534303E+02)
 number of electron      44.0000001 magnetization      -0.1404226
 augmentation part       18.6903422 magnetization      -0.0685446

 Broyden mixing:
  rms(total) = 0.99204E+01    rms(broyden)= 0.99204E+01
  rms(prec ) = 0.15104E+02
  weight for this iteration     100.00

 eigenvalues of (default mixing * dielectric matrix)
  average eigenvalue GAMMA=   0.9234
  2.4996  1.3071  1.3071  0.8428  0.8428  1.0333  0.6562  0.6562  0.6037  0.4567
  0.4375  0.4375

 Free energy of the ion-electron system (eV)
  ---------------------------------------------------
  alpha Z        PSCENC =       306.13626819
  Ewald energy   TEWEN  =     -3699.66047018
  -Hartree energ DENC   =      -858.34552731
  -exchange      EXHF   =         0.00000000
  -V(xc)+E(xc)   XCENC  =        37.99345564
  PAW double counting   =      6663.91738373    -6802.81162210
  entropy T*S    EENTRO =         0.00000000
  eigenvalues    EBANDS =       -94.26730822
  atomic energy  EATOM  =      4374.09793954
  Solvation  Ediel_sol  =         0.00000000
  ---------------------------------------------------
  free energy    TOTEN  =       -72.93988072 eV

  energy without entropy =      -72.93988072  energy(sigma->0) =      -72.93988072


--------------------------------------------------------------------------------------------------------




--------------------------------------- Iteration      1(  18)  ---------------------------------------


    POTLOK:  cpu time      0.0079: real time      0.0092
    SETDIJ:  cpu time      1.4425: real time      1.4431
     EDDAV:  cpu time      3.0988: real time      3.1000
 BZINTS: Fermi energy:   11.864183;   44.000000 electrons
         Band energy: 0.452764E+02;  BLOECHL correction:   -0.089578
       DOS:  cpu time      0.0840: real time      0.0841
    CHARGE:  cpu time      0.2249: real time      0.2250
    MIXING:  cpu time      0.0026: real time      0.0026
    --------------------------------------------
      LOOP:  cpu time      4.8607: real time      4.8639

 eigenvalue-minimisations  :  6192
 total energy-change (2. order) :-0.7983344E+02  (-0.1343196E+03)
 number of electron      43.9999997 magnetization      -0.1018278
 augmentation part        6.5896189 magnetization      -0.1384066

 Broyden mixing:
  rms(total) = 0.77830E+01    rms(broyden)= 0.77830E+01
[...]
  288          m_sumb_d                              0.000115                          2   4
  289        strnlr                                1.797407                            1   3
  290          rspher_all                            0.151841                          9   4
  291          phaser                                0.970222                        270   4
  292          rpro_isp                              0.667264                        270   4
  293            fftwav_mpi                            0.135792                     4320   5
  294              fftwav                                0.130554                   4320   6
  295                fft3d                                 0.029421                 4320   7
  296            rpromu_acc                            0.224577                     1080   5
  297          m_sumb_d                              0.000014                          1   4
  298        fft3d_mpi                             0.003469                           22   3
  299          fftbrc_mpi                            0.002732                         22   4
  300            fftbas_plan_mpi                       0.002724                       22   5
  301              map_forward                           0.000962                     20   6
  302                map_gather                            0.000214                   10   7
  303                m_alltoallv_z                         0.000142                   10   7
  304                map_scatter                           0.000462                   10   7
  305              map_backward                          0.001111                     24   6
  306                map_gather                            0.000252                   12   7
  307                m_alltoallv_z                         0.000148                   12   7
  308                map_scatter                           0.000518                   12   7
  309        m_sumb_d                              0.000032                            5   3
  310        forhar                                0.001970                            2   3
  311          m_sumb_d                              0.000007                          2   4
  312        strehar                               0.001255                            1   3
  313          m_sumb_d                              0.000008                          1   4
  314        chggra                                0.000788                            1   3
  315          fft3d_mpi                             0.000461                          3   4
  316            fftbrc_mpi                            0.000360                        3   5
  317              fftbas_plan_mpi                       0.000359                      3   6
  318                map_forward                           0.000186                    4   7
  319                  map_gather                            0.000044                  2   8
  320                  m_alltoallv_z                         0.000027                  2   8
  321                  map_scatter                           0.000088                  2   8
  322                map_backward                          0.000087                    2   7
  323                  map_gather                            0.000020                  1   8
  324                  m_alltoallv_z                         0.000012                  1   8
  325                  map_scatter                           0.000040                  1   8
  326          m_sumb_d                              0.000009                          2   4
  327          pothar                                0.000081                          1   4
  328            m_sumb_d                              0.000009                        1   5
  329        brmix                                 0.005990                            1   3
  330          m_sumb_d                              0.000032                          6   4
  331          brpre                                 0.000017                          2   4
  332          setg0                                 0.000778                          1   4
  333          broyd                                 0.004169                          1   4
  334            brget                                 0.000974                      326   5
  335            brsav                                 0.000479                      163   5
  336            m_sumb_d                              0.000396                       47   5
  337        m_bcast_d                             0.000021                            2   3
  338      potlok                                0.027100                              2   2
  339        fft3d_mpi                             0.018238                           36   3
  340          fftbrc_mpi                            0.015481                         36   4
  341            fftbas_plan_mpi                       0.015461                       36   5
  342              map_forward                           0.004614                     40   6
  343                map_gather                            0.001541                   24   7
  344                m_alltoallv_z                         0.001529                   24   7
  345                map_scatter                           0.001362                   24   7
  346              map_backward                          0.003764                     32   6
  347                map_gather                            0.001273                   16   7
  348                m_alltoallv_z                         0.001123                   16   7
  349                map_scatter                           0.001177                   16   7
  350              dfftw_execute                         0.005340                     30   6
  351        m_sumb_d                              0.000025                            5   3
  352        pothar                                0.001123                            2   3
  353          m_sumb_d                              0.000076                          2   4
  354        m_bcast_d                             0.001910                            4   3
  355      potlok_metagga                        0.000001                              1   2
  356      set_dd_magatom                        0.000005                              1   2
  357      set_dd_paw                            1.396248                              1   2
  358        m_sumb_d                              0.934306                            7   3
  359      augmentation_charge                   0.153036                              1   2
  360        fft3d_mpi                             0.032784                            2   3
  361          fftbrc_mpi                            0.028297                          2   4
  362            fftbas_plan_mpi                       0.028293                        2   5
  363              dfftw_execute                         0.018760                      6   6
  364              map_backward                          0.009272                      4   6
  365                map_gather                            0.002441                    2   7
  366                m_alltoallv_z                         0.004219                    2   7
  367                map_scatter                           0.002603                    2   7
  368      fftwav_mpi                            1.130271                           1440   2
  369        fftwav                                1.128446                         1440   3
  370          fft3d                                 1.084272                       1440   4
  371      densta                                0.621564                              1   2
 
 Flat profile
 ============
 
             routine name                   CPU           calls
 ---------------------------------------------------------------
 m_sumb_d                              106.527303      282821
 raccmu_                                83.081656       89793
 set_dd_paw                             42.772930          93
 lapack                                 41.405729       89793
 eddav                                  41.385990          95
 phaser                                 21.397702        6090
 redis_pw                               16.474296      504678
 setdij_                                13.711284         119
 augmentation_charge                    11.144987          93
 total_time                             10.810861           1
 init_acc                               10.677261           1
 m_alltoall_d                            9.273003     1305102
 densta                                  7.910318          96
 fft3d                                   5.306703      533985
 dfftw_execute                           4.996675        2676
 redis_proj                              4.290069      638724
 eccp                                    4.203964       45600
 fftwav                                  3.386180      354399
 orth1                                   2.917994      269439
 soft_charge                             2.737158          92
 w1_copy                                 2.647276      538758
 racc0mu_acc                             2.627697       89793
 overl                                   2.560849      313632
 acc_init_cublas                         2.421940           1
 hamiltmu                                2.266362       89793
 rpromu_acc                              2.233780       68553
 m_bcast_z                               1.902226       91713
 setup_precond                           1.657443       45600
 m_bcast_d                               1.500940      179777
 overl_mu                                1.367683       89793
 m_alltoallv_z                           1.360651        3699
 ggemm                                   1.159239      112593
 fft3d_mpi                               1.040394      182895
 pw_charge                               0.929628       33147
 vhamil                                  0.840354      179586
 map_scatter                             0.823788        3699
 kinhamil                                0.820786      179586
 acc_init_cusolver                       0.789704           1
 fftext_mpi                              0.755166      179586
 set_charge                              0.742998          92
 apply_precond                           0.742600      133986
 newband                                 0.725375       95493
 depsum                                  0.714926          92
 map_gather                              0.693025        3699
 fftwav_mpi                              0.461109      354399
 rpro_isp                                0.427600         390
 potlok                                  0.321339          93
 rspher_all                              0.226524          14
 broyd                                   0.220867          91
 fftbas_plan_mpi                         0.194208        3309
 elmin                                   0.174866           1
 lincom                                  0.171891        5760
 acc_cufft_makeplan                      0.118534          19
 brmix                                   0.085974          91
 w1_projall                              0.072786       66993
 setg0                                   0.072358          93
 brget                                   0.050466       16583
 proall                                  0.044208           1
 sphpro_fast                             0.034364           2
 map_backward                            0.019411        3482
 truncate_high_frequency_w1              0.018093      225186
 map_forward                             0.017637        3136
 brsav                                   0.013575        4563
 orthch                                  0.012718           1
 choleski                                0.009760          60
 force_and_stress                        0.009691           1
 strnlr                                  0.008066           1
 pothar                                  0.007999          94
 inisym                                  0.004481           1
 fft_gq                                  0.003314          92
 stufak                                  0.003042           1
 fornlr                                  0.002783           1
 fftbrc_mpi                              0.002029        3309
 forhar                                  0.001963           2
 brpre                                   0.001851         182
 strelo                                  0.001620           1
 strehar                                 0.001247           1
 forloc                                  0.001029           1
 set_dd_magatom                          0.000442          93
 vectorpot                               0.000396          92
 fewald                                  0.000346           1
 chggra                                  0.000237           1
 strkin                                  0.000214           1
 brgrid                                  0.000142           1
 rsp                                     0.000093           1
 fordep                                  0.000049           1
 crpa_reader                             0.000027           1
 posmap                                  0.000023           2
 rcp                                     0.000012           1
 acc_cufft_makeplans                     0.000012           3
 potlok_metagga                          0.000008          92
 rotate_active_occupied_orbital          0.000000           1
 redis_pw_over_bands                     0.000000           1
 ---------------------------------------------------------------
  summed up times     480.5562911033630     
 
 Accumulative profile
 ====================
 
             routine name                   CPU           calls
 ---------------------------------------------------------------
 total_time                            480.556291           1
 elmin                                 442.648106           1
 eddav                                 273.058586          95
 set_dd_paw                            128.788506          93
 m_sumb_d                              106.527303      282821
 hamiltmu                               93.087225       89793
 raccmu_                                87.077036       89793
 lapack                                 41.405729       89793
 phaser                                 21.397702        6090
 redis_pw                               20.985570      504678
 set_charge                             20.977769          92
 setdij_                                18.905166         119
 augmentation_charge                    14.246355          93
 init_acc                               10.677261           1
 fft3d_mpi                              10.422232      182895
 newband                                 9.886152       95493
 m_alltoall_d                            9.273003     1305102
 redis_proj                              9.051797      638724
 force_and_stress                        8.146601           1
 fftbrc_mpi                              8.107424        3309
 fftbas_plan_mpi                         8.105395        3309
 densta                                  7.910318          96
 fftwav_mpi                              7.879578      354399
 fftwav                                  7.418469      354399
 soft_charge                             5.308281          92
 fft3d                                   5.306703      533985
 dfftw_execute                           4.996675        2676
 eccp                                    4.203964       45600
 orth1                                   2.917994      269439
 kinhamil                                2.903474      179586
 w1_copy                                 2.647276      538758
 racc0mu_acc                             2.627697       89793
 overl                                   2.560849      313632
 acc_init_cublas                         2.421940           1
 rpromu_acc                              2.233780       68553
 fftext_mpi                              2.082688      179586
 w1_projall                              2.003422       66993
 m_bcast_z                               1.902226       91713
 strnlr                                  1.797407           1
 setup_precond                           1.657443       45600
 map_forward                             1.576167        3136
 m_bcast_d                               1.500940      179777
 overl_mu                                1.367683       89793
 m_alltoallv_z                           1.360651        3699
 map_backward                            1.338346        3482
 ggemm                                   1.159239      112593
 fordep                                  0.942923           1
 pw_charge                               0.929628       33147
 potlok                                  0.920336          93
 rpro_isp                                0.919920         390
 vhamil                                  0.840354      179586
 map_scatter                             0.823788        3699
 acc_init_cusolver                       0.789704           1
 apply_precond                           0.742600      133986
 depsum                                  0.721858          92
 map_gather                              0.693025        3699
 fornlr                                  0.598617           1
 brmix                                   0.476037          91
 broyd                                   0.311129          91
 orthch                                  0.295585           1
 rspher_all                              0.226524          14
 proall                                  0.181191           1
 lincom                                  0.171891        5760
 fft_gq                                  0.158248          92
 acc_cufft_makeplans                     0.118546           3
 acc_cufft_makeplan                      0.118534          19
 setg0                                   0.072358          93
 brget                                   0.050466       16583
 sphpro_fast                             0.035244           2
 truncate_high_frequency_w1              0.018093      225186
 brsav                                   0.013575        4563
 choleski                                0.009760          60
 pothar                                  0.008906          94
 inisym                                  0.004504           1
 stufak                                  0.003042           1
 forhar                                  0.001970           2
 brpre                                   0.001851         182
 strelo                                  0.001735           1
 strehar                                 0.001255           1
 forloc                                  0.001043           1
 chggra                                  0.000788           1
 fewald                                  0.000520           1
 set_dd_magatom                          0.000442          93
 vectorpot                               0.000396          92
 strkin                                  0.000229           1
 brgrid                                  0.000142           1
 rsp                                     0.000093           1
 crpa_reader                             0.000027           1
 posmap                                  0.000023           2
 rcp                                     0.000012           1
 potlok_metagga                          0.000008          92
 rotate_active_occupied_orbital          0.000000           1
 redis_pw_over_bands                     0.000000           1
 ---------------------------------------------------------------
 
Profiling took   1.115664  0.552726  0.003210  0.003119 seconds
Profiling took   0.705875 seconds
