 vasp.6.3.2 27Jun22 (build Jul  3 2023 11:46:21) complex                         
 executed on    LinuxNV_CrayMPICH date 2024.04.21  20:20:18
 running on    4 total cores
 distrk:  each k-point on    4 cores,    1 groups
 distr:  one band on NCORE=   1 cores,    4 groups


--------------------------------------------------------------------------------------------------------


 INCAR:
   ALGO = Fast
   EDIFF = 0.00085
   ENCUT = 520.0
   IBRION = 2
   ICHARG = 1
   ISIF = 3
   ISMEAR = 0
   ISPIN = 2
   ISTART = 1
   KPOINT_BSE = -1 0 0 0
   LORBIT = 11
   LREAL = Auto
   LWAVE = False
   MAGMOM = 1*7.0 16*0.6
   NELM = 1000
   NSW = 99
   PREC = accurate
   SIGMA = 0.05

 POTCAR:    PAW_PBE Eu 23Dec2003                  
 POTCAR:    PAW_PBE Ge_d 03Jul2007                
 POTCAR:    PAW_PBE Pt 04Feb2005                  
 POTCAR:    PAW_PBE Eu 23Dec2003                  
   SHA256 =  ed303d27e7c5191953f9b15539336e6f36d9037c1d2e92e80c13d733697cb93d Eu/POTCAR             
   COPYR  = (c) Copyright 23Dec2003 Georg Kresse                                                    
   COPYR  = This file is part of the software VASP. Any use, copying, and all other rights are regul
   COPYR  = If you do not have a valid VASP license, you may not use, copy or distribute this file. 
   VRHFIN =Eu : [core=Kr4d]                                                                         
   LEXCH  = PE                                                                                      
   EATOM  =  2619.8085 eV,  192.5505 Ry                                                             
                                                                                                    
   TITEL  = PAW_PBE Eu 23Dec2003                                                                    
   LULTRA =        F    use ultrasoft PP ?                                                          
   IUNSCR =        1    unscreen: 0-lin 1-nonlin 2-no                                               
   RPACOR =    2.300    partial core radius                                                         
   POMASS =  151.965; ZVAL   =   17.000    mass and valenz                                          
   RCORE  =    2.800    outmost cutoff radius                                                       
   RWIGS  =    2.800; RWIGS  =    1.482    wigner-seitz radius (au A)                               
   ENMAX  =  249.668; ENMIN  =  187.251 eV                                                          
   RCLOC  =    2.308    cutoff for local pot                                                        
   LCOR   =        T    correct aug charges                                                         
   LPAW   =        T    paw PP                                                                      
   EAUG   =  549.628                                                                                
   DEXC   =    0.000                                                                                
   RMAX   =    2.870    core radius for proj-oper                                                   
   RAUG   =    1.300    factor for augmentation sphere                                              
   RDEP   =    2.887    radius for radial grids                                                     
   RDEPT  =    2.221    core radius for aug-charge                                                  
                                                                                                    
   Atomic configuration                                                                             
   14 entries                                                                                       
     n  l   j            E        occ.                                                              
     1  0  0.50    -48354.7667   2.0000                                                             
     2  0  0.50     -7939.6472   2.0000                                                             
     2  1  1.50     -7072.6637   6.0000                                                             
     3  0  0.50     -1747.1875   2.0000                                                             
     3  1  1.50     -1477.5221   6.0000                                                             
     3  2  2.50     -1117.4686  10.0000                                                             
     4  0  0.50      -346.8682   2.0000                                                             
     4  1  1.50      -258.1962   6.0000                                                             
     4  2  2.50      -134.7724  10.0000                                                             
     5  0  0.50       -44.6510   2.0000                                                             
     6  0  0.50        -3.6227   2.0000                                                             
     5  1  1.50       -23.7639   6.0000                                                             
     5  2  2.50        -1.3130   0.0000                                                             
     4  3  2.50        -2.7310   7.0000                                                             
   Description                                                                                      
     l       E           TYP  RCUT    TYP  RCUT                                                     
     0    -44.6510453     23  2.400                                                                 
     0     -3.6226685     23  2.400                                                                 
     1    -23.7638687     23  2.400                                                                 
     1     27.2116520     23  2.400                                                                 
     2     -1.3129622     23  2.500                                                                 
     2     13.6058260     23  2.500                                                                 
     3     -2.7309948     23  2.800                                                                 
     3     -3.4014565     23  2.800                                                                 
  local pseudopotential read in
  partial core-charges read in
  partial kinetic energy density read in
  atomic valenz-charges read in
  non local Contribution for L=            0  read in
    real space projection operators read in
  non local Contribution for L=            0  read in
    real space projection operators read in
  non local Contribution for L=            1  read in
    real space projection operators read in
  non local Contribution for L=            1  read in
    real space projection operators read in
  non local Contribution for L=            2  read in
    real space projection operators read in
  non local Contribution for L=            2  read in
    real space projection operators read in
  non local Contribution for L=            3  read in
    real space projection operators read in
  non local Contribution for L=            3  read in
    real space projection operators read in
    PAW grid and wavefunctions read in
 
   number of l-projection  operators is LMAX  =            8
   number of lm-projection operators is LMMAX =           32
 
 POTCAR:    PAW_PBE Ge_d 03Jul2007                
   SHA256 =  944b26c40d2d7c4f4eb1ff3a2e8dbfdd7129146276cd341854bfd5c0e57780ed Ge_d/POTCAR           
   COPYR  = (c) Copyright 03Jul2007 Georg Kresse                                                    
   COPYR  = This file is part of the software VASP. Any use, copying, and all other rights are regul
   COPYR  = If you do not have a valid VASP license, you may not use, copy or distribute this file. 
   VRHFIN =Ge: 3d4s4p                                                                               
   LEXCH  = PE                                                                                      
   EATOM  =  2596.2402 eV,  190.8183 Ry                                                             
                                                                                                    
   TITEL  = PAW_PBE Ge_d 03Jul2007                                                                  
   LULTRA =        F    use ultrasoft PP ?                                                          
   IUNSCR =        1    unscreen: 0-lin 1-nonlin 2-no                                               
   RPACOR =    2.000    partial core radius                                                         
   POMASS =   72.610; ZVAL   =   14.000    mass and valenz                                          
   RCORE  =    2.300    outmost cutoff radius                                                       
   RWIGS  =    2.300; RWIGS  =    1.217    wigner-seitz radius (au A)                               
   ENMAX  =  310.294; ENMIN  =  232.720 eV                                                          
   ICORE  =        3    local potential                                                             
   LCOR   =        T    correct aug charges                                                         
   LPAW   =        T    paw PP                                                                      
   EAUG   =  531.356                                                                                
   DEXC   =    0.000                                                                                
   RMAX   =    2.342    core radius for proj-oper                                                   
   RAUG   =    1.300    factor for augmentation sphere                                              
   RDEP   =    2.318    radius for radial grids                                                     
   RDEPT  =    1.783    core radius for aug-charge                                                  
                                                                                                    
   Atomic configuration                                                                             
    9 entries                                                                                       
     n  l   j            E        occ.                                                              
     1  0  0.50    -10959.8463   2.0000                                                             
     2  0  0.50     -1371.6056   2.0000                                                             
     2  1  1.50     -1198.4791   6.0000                                                             
     3  0  0.50      -168.4733   2.0000                                                             
     3  1  1.50      -115.6019   6.0000                                                             
     3  2  2.50       -29.3106  10.0000                                                             
     4  0  0.50       -11.7309   2.0000                                                             
     4  1  0.50        -3.8952   2.0000                                                             
     4  3  2.50        -4.0817   0.0000                                                             
   Description                                                                                      
     l       E           TYP  RCUT    TYP  RCUT                                                     
     2    -29.3105938     23  2.200                                                                 
     2    -13.6058260     23  2.200                                                                 
     0    -11.7309493     23  2.300                                                                 
     0     -7.4578696     23  2.300                                                                 
     1     -3.8952261     23  2.300                                                                 
     1      6.1178114     23  2.300                                                                 
     3     -1.3605826     23  2.300                                                                 
  local pseudopotential read in
  partial core-charges read in
  partial kinetic energy density read in
  atomic valenz-charges read in
  non local Contribution for L=            2  read in
    real space projection operators read in
  non local Contribution for L=            2  read in
    real space projection operators read in
  non local Contribution for L=            0  read in
    real space projection operators read in
  non local Contribution for L=            0  read in
    real space projection operators read in
  non local Contribution for L=            1  read in
    real space projection operators read in
  non local Contribution for L=            1  read in
    real space projection operators read in
    PAW grid and wavefunctions read in
 
   number of l-projection  operators is LMAX  =            6
   number of lm-projection operators is LMMAX =           18
 
 POTCAR:    PAW_PBE Pt 04Feb2005                  
   SHA256 =  3ed90460adef76debcff1cfb73ee1349b515b1a3db03439735b44de3a8db7dc8 Pt/POTCAR             
   COPYR  = (c) Copyright 04Feb2005 Georg Kresse                                                    
   COPYR  = This file is part of the software VASP. Any use, copying, and all other rights are regul
   COPYR  = If you do not have a valid VASP license, you may not use, copy or distribute this file. 
   VRHFIN =Pt: s1d9                                                                                 
   LEXCH  = PE                                                                                      
   EATOM  =   729.1176 eV,   53.5886 Ry                                                             
                                                                                                    
   TITEL  = PAW_PBE Pt 04Feb2005                                                                    
   LULTRA =        F    use ultrasoft PP ?                                                          
   IUNSCR =        1    unscreen: 0-lin 1-nonlin 2-no                                               
   RPACOR =    2.330    partial core radius                                                         
   POMASS =  195.080; ZVAL   =   10.000    mass and valenz                                          
   RCORE  =    2.600    outmost cutoff radius                                                       
   RWIGS  =    2.750; RWIGS  =    1.455    wigner-seitz radius (au A)                               
   ENMAX  =  230.283; ENMIN  =  172.712 eV                                                          
   ICORE  =        3    local potential                                                             
   LCOR   =        T    correct aug charges                                                         
   LPAW   =        T    paw PP                                                                      
   EAUG   =  358.966                                                                                
   DEXC   =    0.000                                                                                
   RMAX   =    2.658    core radius for proj-oper                                                   
   RAUG   =    1.300    factor for augmentation sphere                                              
   RDEP   =    2.761    radius for radial grids                                                     
   RDEPT  =    2.203    core radius for aug-charge                                                  
                                                                                                    
   Atomic configuration                                                                             
   16 entries                                                                                       
     n  l   j            E        occ.                                                              
     1  0  0.50    -78401.1885   2.0000                                                             
     2  0  0.50    -13770.7750   2.0000                                                             
     2  1  1.50    -11931.0468   6.0000                                                             
     3  0  0.50     -3234.7234   2.0000                                                             
     3  1  1.50     -2699.2216   6.0000                                                             
     3  2  2.50     -2119.5714  10.0000                                                             
     4  0  0.50      -695.1528   2.0000                                                             
     4  1  1.50      -519.6034   6.0000                                                             
     4  2  2.50      -306.6786  10.0000                                                             
     4  3  3.50       -70.1041  14.0000                                                             
     5  0  0.50      -101.7747   2.0000                                                             
     5  1  1.50       -55.9873   6.0000                                                             
     5  2  2.50        -6.1423   9.0000                                                             
     6  0  0.50        -5.6573   1.0000                                                             
     6  1  1.50        -6.8029   0.0000                                                             
     5  3  2.50        -1.3606   0.0000                                                             
   Description                                                                                      
     l       E           TYP  RCUT    TYP  RCUT                                                     
     2     -6.1423404     23  2.500                                                                 
     2     -7.5029230     23  2.500                                                                 
     0     -5.6573207     23  2.500                                                                 
     0      0.7416693     23  2.500                                                                 
     1     -2.7211652     23  2.600                                                                 
     1     20.4087390     23  2.600                                                                 
     3     -1.3605826     23  2.500                                                                 
  local pseudopotential read in
  partial core-charges read in
  partial kinetic energy density read in
  atomic valenz-charges read in
  non local Contribution for L=            2  read in
    real space projection operators read in
  non local Contribution for L=            2  read in
    real space projection operators read in
  non local Contribution for L=            0  read in
    real space projection operators read in
  non local Contribution for L=            0  read in
    real space projection operators read in
  non local Contribution for L=            1  read in
    real space projection operators read in
  non local Contribution for L=            1  read in
    real space projection operators read in
    PAW grid and wavefunctions read in
 
   number of l-projection  operators is LMAX  =            6
   number of lm-projection operators is LMMAX =           18
 
 Optimization of the real space projectors (new method)

 maximal supplied QI-value         = 13.42
 optimisation between [QCUT,QGAM] = [ 11.67, 23.35] = [ 38.16,152.62] Ry 
 Optimized for a Real-space Cutoff    1.63 Angstroem

   l    n(q)    QCUT    max X(q) W(low)/X(q) W(high)/X(q)  e(spline) 
   0     11    11.673    10.400    0.14E-04    0.18E-05    0.24E-07
   0     11    11.673    10.768    0.21E-04    0.32E-05    0.49E-07
   1     11    11.673     4.094    0.40E-05    0.13E-04    0.93E-07
   1     11    11.673     4.009    0.11E-04    0.46E-04    0.33E-06
   2     10    11.673    29.030    0.79E-04    0.60E-04    0.70E-06
   2     10    11.673    19.941    0.80E-04    0.60E-04    0.71E-06
   3     10    11.673    88.889    0.23E-03    0.29E-03    0.30E-06
   3     10    11.673    76.102    0.23E-03    0.30E-03    0.30E-06
 Optimization of the real space projectors (new method)

 maximal supplied QI-value         = 16.25
 optimisation between [QCUT,QGAM] = [ 11.54, 23.24] = [ 37.28,151.24] Ry 
 Optimized for a Real-space Cutoff    1.53 Angstroem

   l    n(q)    QCUT    max X(q) W(low)/X(q) W(high)/X(q)  e(spline) 
   2     10    11.539     8.936    0.13E-03    0.18E-03    0.23E-06
   2     10    11.539     8.183    0.16E-03    0.22E-03    0.28E-06
   0     11    11.539    62.777    0.61E-04    0.20E-04    0.15E-06
   0     11    11.539    50.556    0.58E-04    0.19E-04    0.14E-06
   1     10    11.539    38.422    0.20E-04    0.75E-05    0.16E-06
   1     10    11.539    22.623    0.19E-04    0.69E-05    0.15E-06
 Optimization of the real space projectors (new method)

 maximal supplied QI-value         = 14.36
 optimisation between [QCUT,QGAM] = [ 11.63, 23.27] = [ 37.90,151.59] Ry 
 Optimized for a Real-space Cutoff    1.49 Angstroem

   l    n(q)    QCUT    max X(q) W(low)/X(q) W(high)/X(q)  e(spline) 
   2      9    11.633    66.195    0.24E-03    0.97E-04    0.19E-06
   2      9    11.633    64.643    0.25E-03    0.98E-04    0.20E-06
   0     10    11.633    95.520    0.71E-04    0.29E-04    0.12E-06
   0     10    11.633    63.403    0.69E-04    0.28E-04    0.12E-06
   1     10    11.633    19.961    0.61E-04    0.16E-03    0.11E-06
   1     10    11.633    13.289    0.50E-04    0.13E-03    0.90E-07
  PAW_PBE Eu 23Dec2003                  :
 energy of atom  1       EATOM=-2619.8085
 kinetic energy error for atom=    0.0015 (will be added to EATOM!!)
  PAW_PBE Ge_d 03Jul2007                :
 energy of atom  2       EATOM=-2596.2402
 kinetic energy error for atom=    0.0028 (will be added to EATOM!!)
  PAW_PBE Pt 04Feb2005                  :
 energy of atom  3       EATOM= -729.1176
 kinetic energy error for atom=    0.0032 (will be added to EATOM!!)
 
 
 POSCAR: Eu1 Ge12 Pt4
  positions in direct lattice
  No initial velocities read in
 exchange correlation table for  LEXCH =        8
   RHO(1)=    0.500       N(1)  =     2000
   RHO(2)=  100.500       N(2)  =     4000

 VTST: version 4.2, (08/11/21)

 CHAIN: initializing optimizer
 
 OPT: Using VASP Conjugate-Gradient optimizer
 CHAIN: Read ICHAIN             0
 
 POSCAR: Eu1 Ge12 Pt4
  positions in direct lattice
  No initial velocities read in
 


--------------------------------------------------------------------------------------------------------


 ion  position               nearest neighbor table
   1  0.000  0.000  0.000-
   2  0.354  0.504  0.150-  15 2.57  17 2.57   3 2.61  12 2.68
   3  0.646  0.797  0.150-  16 2.57  14 2.57   2 2.61  13 2.68
   4  0.850  0.354  0.203-  15 2.57  14 2.57   7 2.61   8 2.68
   5  0.504  0.150  0.354-  14 2.57  17 2.57   9 2.61   6 2.68
   6  0.203  0.850  0.354-  16 2.57  15 2.57  10 2.61   5 2.68
   7  0.850  0.646  0.496-  16 2.57  17 2.57   4 2.61  11 2.68
   8  0.150  0.354  0.504-  16 2.57  17 2.57  11 2.61   4 2.68
   9  0.797  0.150  0.646-  15 2.57  16 2.57   5 2.61  10 2.68
  10  0.496  0.850  0.646-  14 2.57  17 2.57   6 2.61   9 2.68
  11  0.150  0.646  0.797-  14 2.57  15 2.57   8 2.61   7 2.68
  12  0.354  0.203  0.850-  14 2.57  16 2.57  13 2.61   2 2.68
  13  0.646  0.496  0.850-  15 2.57  17 2.57  12 2.61   3 2.68
  14  0.500  0.000  0.000-   5 2.57  11 2.57  12 2.57  10 2.57   3 2.57   4 2.57
  15  0.000  0.500  0.000-   2 2.57   9 2.57   4 2.57  13 2.57  11 2.57   6 2.57
  16  0.000  0.000  0.500-   3 2.57   8 2.57   6 2.57   7 2.57   9 2.57  12 2.57
  17  0.500  0.500  0.500-   5 2.57   2 2.57   8 2.57   7 2.57  10 2.57  13 2.57
 
  LATTYP: Found a body centered cubic cell.
 ALAT       =     8.9240722000
  
  Lattice vectors:
  
 A1 = (   4.4620361000,   4.4620361000,   4.4620361000)
 A2 = (   4.4620361000,  -4.4620361000,  -4.4620361000)
 A3 = (  -4.4620361000,   4.4620361000,  -4.4620361000)


Analysis of symmetry for initial positions (statically):
=====================================================================
 Subroutine PRICEL returns:
 Original cell was already a primitive cell.
 

 Routine SETGRP: Setting up the symmetry group for a 
 body centered cubic supercell.


 Subroutine GETGRP returns: Found 24 space group operations
 (whereof 24 operations were pure point group operations)
 out of a pool of 48 trial point group operations.


The static configuration has the point symmetry T_h .


Analysis of symmetry for dynamics (positions and initial velocities):
=====================================================================
 Subroutine PRICEL returns:
 Original cell was already a primitive cell.
 

 Routine SETGRP: Setting up the symmetry group for a 
 body centered cubic supercell.


 Subroutine GETGRP returns: Found 24 space group operations
 (whereof 24 operations were pure point group operations)
 out of a pool of 48 trial point group operations.


The dynamic configuration has the point symmetry T_h .


Analysis of structural, dynamic, and magnetic symmetry:
=====================================================================
 Subroutine PRICEL returns:
 Original cell was already a primitive cell.
 

 Routine SETGRP: Setting up the symmetry group for a 
 body centered cubic supercell.


 Subroutine GETGRP returns: Found 24 space group operations
 (whereof 24 operations were pure point group operations)
 out of a pool of 48 trial point group operations.


The overall configuration has the point symmetry T_h .


 Subroutine INISYM returns: Found 24 space group operations
 (whereof 24 operations are pure point group operations),
 and found     1 'primitive' translations


----------------------------------------------------------------------------------------

                                     Primitive cell                                     

  volume of cell :     355.3524

  direct lattice vectors                    reciprocal lattice vectors
     4.462036100  4.462036100  4.462036100     0.112056467  0.112056467  0.000000000
     4.462036100 -4.462036100 -4.462036100     0.112056467 -0.000000000 -0.112056467
    -4.462036100  4.462036100 -4.462036100    -0.000000000  0.112056467 -0.112056467

  length of vectors
     7.728473230  7.728473230  7.728473230     0.158471775  0.158471775  0.158471775

  position of ions in fractional coordinates (direct lattice)
     0.000000000  0.000000000  0.000000000
     0.353598350  0.503928470  0.150330120
     0.646401650  0.796731770  0.150330120
     0.849668880  0.353599350  0.203268230
     0.503928470  0.150330120  0.353598350
     0.203268230  0.849668880  0.353599350
     0.849668880  0.646401650  0.496070530
     0.150330120  0.353598350  0.503928470
     0.796731770  0.150330120  0.646401650
     0.496070530  0.849668880  0.646401650
     0.150330120  0.646401650  0.796731770
     0.353599350  0.203268230  0.849668880
     0.646401650  0.496070530  0.849668880
     0.499999000  1.000000000  1.000000000
     1.000000000  0.499999000  0.000000000
     1.000000000  0.000000000  0.499999000
     0.499999000  0.499999000  0.499999000

  ion indices of the primitive-cell ions
   primitive index   ion index
                 1           1
                 2           2
                 3           3
                 4           4
                 5           5
                 6           6
                 7           7
                 8           8
                 9           9
                10          10
                11          11
                12          12
                13          13
                14          14
                15          15
                16          16
                17          17

----------------------------------------------------------------------------------------

 
 
 KPOINTS: Kpoints from vasprun.xml                

Automatic generation of k-mesh.
 Grid dimensions read from file:
 generate k-points for:    3    3    3

 Generating k-lattice:

  Cartesian coordinates                     Fractional coordinates (reciprocal lattice)
     0.037352156  0.037352156  0.000000000     0.333333333  0.000000000 -0.000000000
     0.037352156 -0.000000000 -0.037352156     0.000000000  0.333333333 -0.000000000
    -0.000000000  0.037352156 -0.037352156     0.000000000 -0.000000000  0.333333333

  Length of vectors
     0.052823925  0.052823925  0.052823925

  Shift w.r.t. Gamma in fractional coordinates (k-lattice)
     0.000000000  0.000000000  0.000000000

 
 Subroutine IBZKPT returns following result:
 ===========================================
 
 Found      4 irreducible k-points:
 
 Following reciprocal coordinates:
            Coordinates               Weight
  0.000000  0.000000  0.000000      1.000000
  0.333333  0.000000  0.000000     12.000000
  0.333333  0.333333  0.000000      8.000000
 -0.333333  0.333333  0.333333      6.000000
 
 Following cartesian coordinates:
            Coordinates               Weight
  0.000000  0.000000 -0.000000      1.000000
  0.037352  0.037352 -0.000000     12.000000
  0.074704  0.037352 -0.037352      8.000000
  0.000000  0.000000 -0.074704      6.000000
 


--------------------------------------------------------------------------------------------------------




 Dimension of arrays:
   k-points           NKPTS =      4   k-points in BZ     NKDIM =      4   number of bands    NBANDS=    144
   number of dos      NEDOS =    301   number of ions     NIONS =     17
   non local maximal  LDIM  =      8   non local SUM 2l+1 LMDIM =     32
   total plane-waves  NPLWV = 216000
   max r-space proj   IRMAX =  11020   max aug-charges    IRDMAX=  37011
   dimension x,y,z NGX =    60 NGY =   60 NGZ =   60
   dimension x,y,z NGXF=   120 NGYF=  120 NGZF=  120
   support grid    NGXF=   120 NGYF=  120 NGZF=  120
   ions per type =               1  12   4
   NGX,Y,Z   is equivalent  to a cutoff of  12.91, 12.91, 12.91 a.u.
   NGXF,Y,Z  is equivalent  to a cutoff of  25.81, 25.81, 25.81 a.u.

 SYSTEM =  unknown system                          
 POSCAR =  Eu1 Ge12 Pt4                            

 Startparameter for this run:
   NWRITE =      2    write-flag & timer
   PREC   = accura    normal or accurate (medium, high low for compatibility)
   ISTART =      0    job   : 0-new  1-cont  2-samecut
   ICHARG =      1    charge: 1-file 2-atom 10-const
   ISPIN  =      2    spin polarized calculation?
   LNONCOLLINEAR =      F non collinear calculations
   LSORBIT =      F    spin-orbit coupling
   INIWAV =      1    electr: 0-lowe 1-rand  2-diag
   LASPH  =      F    aspherical Exc in radial PAW
 Electronic Relaxation 1
   ENCUT  =  520.0 eV  38.22 Ry    6.18 a.u.  14.37 14.37 14.37*2*pi/ulx,y,z
   ENINI  =  520.0     initial cutoff
   ENAUG  =  549.6 eV  augmentation charge cutoff
   NELM   =   1000;   NELMIN=  2; NELMDL=  0     # of ELM steps 
   EDIFF  = 0.8E-03   stopping-criterion for ELM
   LREAL  =      T    real-space projection
   NLSPLINE    = F    spline interpolate recip. space projectors
   LCOMPAT=      F    compatible to vasp.4.4
   GGA_COMPAT  = T    GGA compatible to vasp.4.4-vasp.4.6
   LMAXPAW     = -100 max onsite density
   LMAXMIX     =    2 max onsite mixed and CHGCAR
   VOSKOWN=      0    Vosko Wilk Nusair interpolation
   ROPT   =   -0.00025  -0.00025  -0.00025
 Ionic relaxation
   EDIFFG = 0.8E-02   stopping-criterion for IOM
   NSW    =     99    number of steps for IOM
   NBLOCK =      1;   KBLOCK =     99    inner block; outer block 
   IBRION =      2    ionic relax: 0-MD 1-quasi-New 2-CG
   NFREE  =      1    steps in history (QN), initial steepest desc. (CG)
   ISIF   =      3    stress and relaxation
   IWAVPR =     11    prediction:  0-non 1-charg 2-wave 3-comb
   ISYM   =      2    0-nonsym 1-usesym 2-fastsym
   LCORR  =      T    Harris-Foulkes like correction to forces

   POTIM  = 0.5000    time-step for ionic-motion
   TEIN   =    0.0    initial temperature
   TEBEG  =    0.0;   TEEND  =   0.0 temperature during run
   SMASS  =  -3.00    Nose mass-parameter (am)
   estimated Nose-frequenzy (Omega)   =  0.10E-29 period in steps = 0.13E+47 mass=  -0.136E-26a.u.
   SCALEE = 1.0000    scale energy and forces
   NPACO  =    256;   APACO  = 10.0  distance and # of slots for P.C.
   PSTRESS=    0.0 pullay stress

  Mass of Ions in am
   POMASS = 151.97 72.61195.08
  Ionic Valenz
   ZVAL   =  17.00 14.00 10.00
  Atomic Wigner-Seitz radii
   RWIGS  =  -1.00 -1.00 -1.00
  virtual crystal weights 
   VCA    =   1.00  1.00  1.00
   NELECT =     225.0000    total number of electrons
   NUPDOWN=      -1.0000    fix difference up-down

 DOS related values:
   EMIN   =  10.00;   EMAX   =-10.00  energy-range for DOS
   EFERMI =   0.00
   ISMEAR =     0;   SIGMA  =   0.05  broadening in eV -4-tet -1-fermi 0-gaus

 Electronic relaxation 2 (details)
   IALGO  =     68    algorithm
   LDIAG  =      T    sub-space diagonalisation (order eigenvalues)
   LSUBROT=      F    optimize rotation matrix (better conditioning)
   TURBO    =      0    0=normal 1=particle mesh
   IRESTART =      0    0=no restart 2=restart with 2 vectors
   NREBOOT  =      0    no. of reboots
   NMIN     =      0    reboot dimension
   EREF     =   0.00    reference energy to select bands
   IMIX   =      4    mixing-type and parameters
     AMIX     =   0.40;   BMIX     =  1.00
     AMIX_MAG =   1.60;   BMIX_MAG =  1.00
     AMIN     =   0.10
     WC   =   100.;   INIMIX=   1;  MIXPRE=   1;  MAXMIX= -45

 Intra band minimization:
   WEIMIN = 0.0010     energy-eigenvalue tresh-hold
   EBREAK =  0.15E-05  absolut break condition
   DEPER  =   0.30     relativ break condition  

   TIME   =   0.40     timestep for ELM

  volume/ion in A,a.u.               =      20.90       141.06
  Fermi-wavevector in a.u.,A,eV,Ry     =   1.405775  2.656530 26.887893  1.976204
  Thomas-Fermi vector in A             =   2.528203
 
 Write flags
   LWAVE        =      F    write WAVECAR
   LDOWNSAMPLE  =      F    k-point downsampling of WAVECAR
   LCHARG       =      T    write CHGCAR
   LVTOT        =      F    write LOCPOT, total local potential
   LVHAR        =      F    write LOCPOT, Hartree potential only
   LELF         =      F    write electronic localiz. function (ELF)
   LORBIT       =     11    0 simple, 1 ext, 2 COOP (PROOUT), +10 PAW based schemes


 Dipole corrections
   LMONO  =      F    monopole corrections only (constant potential shift)
   LDIPOL =      F    correct potential (dipole corrections)
   IDIPOL =      0    1-x, 2-y, 3-z, 4-all directions 
   EPSILON=  1.0000000 bulk dielectric constant

 Exchange correlation treatment:
   GGA     =    --    GGA type
   LEXCH   =     8    internal setting for exchange type
   LIBXC   =     F    Libxc                    
   VOSKOWN =     0    Vosko Wilk Nusair interpolation
   LHFCALC =     F    Hartree Fock is set to
   LHFONE  =     F    Hartree Fock one center treatment
   AEXX    =    0.0000 exact exchange contribution

 Linear response parameters
   LEPSILON=     F    determine dielectric tensor
   LRPA    =     F    only Hartree local field effects (RPA)
   LNABLA  =     F    use nabla operator in PAW spheres
   LVEL    =     F    velocity operator in full k-point grid
   CSHIFT  =0.1000    complex shift for real part using Kramers Kronig
   OMEGAMAX=  -1.0    maximum frequency
   DEG_THRESHOLD= 0.2000000E-02 threshold for treating states as degnerate
   RTIME   =   -0.100 relaxation time in fs
  (WPLASMAI=    0.000 imaginary part of plasma frequency in eV, 0.658/RTIME)
   DFIELD  = 0.0000000 0.0000000 0.0000000 field for delta impulse in time
 
  Optional k-point grid parameters
   LKPOINTS_OPT  =     F    use optional k-point grid
   KPOINTS_OPT_MODE=     1    mode for optional k-point grid
 
 Orbital magnetization related:
   ORBITALMAG=     F  switch on orbital magnetization
   LCHIMAG   =     F  perturbation theory with respect to B field
   DQ        =  0.001000  dq finite difference perturbation B field
   LLRAUG    =     F  two centre corrections for induced B field



--------------------------------------------------------------------------------------------------------


 conjugate gradient relaxation of ions
 charge density and potential will be updated during run
 spin polarized calculation
 RMM-DIIS sequential band-by-band and
  variant of blocked Davidson during initial phase
 perform sub-space diagonalisation
    before iterative eigenvector-optimisation
 modified Broyden-mixing scheme, WC =      100.0
 initial mixing is a Kerker type mixing with AMIX =  0.4000 and BMIX =      1.0000
 Hartree-type preconditioning will be used
 using additional bands            31
 real space projection scheme for non local part
 use partial core corrections
 calculate Harris-corrections to forces 
   (improved forces if not selfconsistent)
 use gradient corrections 
 use of overlap-Matrix (Vanderbilt PP)
 Gauss-broadening in eV      SIGMA  =   0.05


--------------------------------------------------------------------------------------------------------


  energy-cutoff  :      520.00
  volume of cell :      355.35
      direct lattice vectors                 reciprocal lattice vectors
     4.462036100  4.462036100  4.462036100     0.112056467  0.112056467  0.000000000
     4.462036100 -4.462036100 -4.462036100     0.112056467 -0.000000000 -0.112056467
    -4.462036100  4.462036100 -4.462036100    -0.000000000  0.112056467 -0.112056467

  length of vectors
     7.728473230  7.728473230  7.728473230     0.158471775  0.158471775  0.158471775


 
 k-points in units of 2pi/SCALE and weight: Kpoints from vasprun.xml                
   0.00000000  0.00000000 -0.00000000       0.037
   0.03735216  0.03735216 -0.00000000       0.444
   0.07470431  0.03735216 -0.03735216       0.296
   0.00000000  0.00000000 -0.07470431       0.222
 
 k-points in reciprocal lattice and weights: Kpoints from vasprun.xml                
   0.00000000  0.00000000  0.00000000       0.037
   0.33333333  0.00000000  0.00000000       0.444
   0.33333333  0.33333333  0.00000000       0.296
  -0.33333333  0.33333333  0.33333333       0.222
 
 position of ions in fractional coordinates (direct lattice) 
   0.00000000  0.00000000  0.00000000
   0.35359835  0.50392847  0.15033012
   0.64640165  0.79673177  0.15033012
   0.84966888  0.35359935  0.20326823
   0.50392847  0.15033012  0.35359835
   0.20326823  0.84966888  0.35359935
   0.84966888  0.64640165  0.49607053
   0.15033012  0.35359835  0.50392847
   0.79673177  0.15033012  0.64640165
   0.49607053  0.84966888  0.64640165
   0.15033012  0.64640165  0.79673177
   0.35359935  0.20326823  0.84966888
   0.64640165  0.49607053  0.84966888
   0.49999900  0.00000000  0.00000000
   0.00000000  0.49999900  0.00000000
   0.00000000  0.00000000  0.49999900
   0.49999900  0.49999900  0.49999900
 
 position of ions in cartesian coordinates  (Angst):
   0.00000000  0.00000000  0.00000000
   3.15553721  0.00000000 -1.34155684
   5.76853499 -0.00000000 -1.34155684
   4.46203610  3.12047033  1.30648997
   1.34155684  3.15553721 -0.00000000
   3.12047033 -1.30648997 -4.46203610
   4.46203610  3.12047033 -1.30649889
   0.00000000  1.34155684 -3.15553721
   1.34155684  5.76853499  0.00000000
   3.12047033  1.30649889 -4.46203610
   0.00000000  1.34155684 -5.76853499
  -1.30648997  4.46203610 -3.12047033
   1.30649889  4.46203610 -3.12047033
   2.23101359  2.23101359  2.23101359
   2.23101359 -2.23101359 -2.23101359
  -2.23101359  2.23101359 -2.23101359
   2.23101359  2.23101359 -2.23101359
 


--------------------------------------------------------------------------------------------------------


 k-point   1 :   0.0000 0.0000 0.0000  plane waves:    9597
 k-point   2 :   0.3333 0.0000 0.0000  plane waves:    9586
 k-point   3 :   0.3333 0.3333 0.0000  plane waves:    9541
 k-point   4 :  -0.3333 0.3333 0.3333  plane waves:    9564

 maximum and minimum number of plane-waves per node :      9597     9541

 maximum number of plane-waves:      9597
 maximum index in each direction: 
   IXMAX=   14   IYMAX=   14   IZMAX=   14
   IXMIN=  -14   IYMIN=  -14   IZMIN=  -14


 serial   3D FFT for wavefunctions
 parallel 3D FFT for charge:
    minimum data exchange during FFTs selected (reduces bandwidth)


 total amount of memory used by VASP MPI-rank0   177305. kBytes
=======================================================================

   base      :      30000. kBytes
   nonlr-proj:      28385. kBytes
   fftplans  :      15609. kBytes
   grid      :      55929. kBytes
   one-center:       1671. kBytes
   wavefun   :      45711. kBytes
 
     INWAV:  cpu time      0.0002: real time      0.0004
 Broyden mixing: mesh for mixing (old mesh)
   NGX = 29   NGY = 29   NGZ = 29
  (NGX  =120   NGY  =120   NGZ  =120)
  gives a total of  24389 points

 initial charge density was supplied:
 charge density of overlapping atoms calculated
 number of electron     225.0000000 magnetization      16.6000000
 keeping initial charge density in first step


--------------------------------------------------------------------------------------------------------


 Maximum index for non-local projection operator         10777
 Maximum index for augmentation-charges          8945 (set IRDMAX)


--------------------------------------------------------------------------------------------------------


 First call to EWALD:  gamma=   0.250
 Maximum number of real-space cells 3x 3x 3
 Maximum number of reciprocal cells 3x 3x 3

    FEWALD:  cpu time      0.0009: real time      0.0009


--------------------------------------- Iteration      1(   1)  ---------------------------------------


    POTLOK:  cpu time      0.1001: real time      0.1538
    SETDIJ:  cpu time      0.0331: real time      0.0331
     EDDAV:  cpu time      1.4539: real time      1.4564
       DOS:  cpu time      0.0006: real time      0.0006
    --------------------------------------------
      LOOP:  cpu time      1.5877: real time      1.6439

 eigenvalue-minimisations  :  2848
 total energy-change (2. order) : 0.3706641E+04  (-0.7914908E+04)
 number of electron     225.0000000 magnetization      16.6000000
 augmentation part      225.0000000 magnetization      16.6000000

 Free energy of the ion-electron system (eV)
  ---------------------------------------------------
  alpha Z        PSCENC =      1225.61726867
  Ewald energy   TEWEN  =    -22245.90192762
  -Hartree energ DENC   =     -9358.02349254
  -exchange      EXHF   =         0.00000000
  -V(xc)+E(xc)   XCENC  =       975.11808648
  PAW double counting   =     27038.14100549   -32288.24043754
  entropy T*S    EENTRO =        -0.00621586
  eigenvalues    EBANDS =      1668.82285850
  atomic energy  EATOM  =     36691.11340606
  Solvation  Ediel_sol  =         0.00000000
  ---------------------------------------------------
  free energy    TOTEN  =      3706.64055165 eV

  energy without entropy =     3706.64676751  energy(sigma->0) =     3706.64365958


--------------------------------------------------------------------------------------------------------




--------------------------------------- Iteration      1(   2)  ---------------------------------------


     EDDAV:  cpu time      1.2176: real time      1.2193
       DOS:  cpu time      0.0005: real time      0.0005
    --------------------------------------------
      LOOP:  cpu time      1.2180: real time      1.2198

 eigenvalue-minimisations  :  2336
 total energy-change (2. order) :-0.2866064E+04  (-0.2675283E+04)
 number of electron     225.0000000 magnetization      16.6000000
 augmentation part      225.0000000 magnetization      16.6000000

 Free energy of the ion-electron system (eV)
  ---------------------------------------------------
  alpha Z        PSCENC =      1225.61726867
  Ewald energy   TEWEN  =    -22245.90192762
  -Hartree energ DENC   =     -9358.02349254
  -exchange      EXHF   =         0.00000000
  -V(xc)+E(xc)   XCENC  =       975.11808648
  PAW double counting   =     27038.14100549   -32288.24043754
  entropy T*S    EENTRO =        -0.01313781
  eigenvalues    EBANDS =     -1197.23409503
  atomic energy  EATOM  =     36691.11340606
  Solvation  Ediel_sol  =         0.00000000
  ---------------------------------------------------
  free energy    TOTEN  =       840.57667617 eV

  energy without entropy =      840.58981398  energy(sigma->0) =      840.58324508


--------------------------------------------------------------------------------------------------------




--------------------------------------- Iteration      1(   3)  ---------------------------------------


     EDDAV:  cpu time      1.2039: real time      1.2055
       DOS:  cpu time      0.0005: real time      0.0005
    --------------------------------------------
      LOOP:  cpu time      1.2044: real time      1.2060

 eigenvalue-minimisations  :  2304
 total energy-change (2. order) :-0.8133924E+03  (-0.7426906E+03)
 number of electron     225.0000000 magnetization      16.6000000
 augmentation part      225.0000000 magnetization      16.6000000

 Free energy of the ion-electron system (eV)
  ---------------------------------------------------
  alpha Z        PSCENC =      1225.61726867
  Ewald energy   TEWEN  =    -22245.90192762
  -Hartree energ DENC   =     -9358.02349254
  -exchange      EXHF   =         0.00000000
  -V(xc)+E(xc)   XCENC  =       975.11808648
  PAW double counting   =     27038.14100549   -32288.24043754
  entropy T*S    EENTRO =        -0.00801395
  eigenvalues    EBANDS =     -2010.63166277
  atomic energy  EATOM  =     36691.11340606
  Solvation  Ediel_sol  =         0.00000000
  ---------------------------------------------------
  free energy    TOTEN  =        27.18423230 eV

  energy without entropy =       27.19224625  energy(sigma->0) =       27.18823927


--------------------------------------------------------------------------------------------------------




--------------------------------------- Iteration      1(   4)  ---------------------------------------


     EDDAV:  cpu time      1.3718: real time      1.3729
       DOS:  cpu time      0.0005: real time      0.0005
    --------------------------------------------
      LOOP:  cpu time      1.3723: real time      1.3734

 eigenvalue-minimisations  :  2760
 total energy-change (2. order) :-0.1194876E+03  (-0.1093794E+03)
 number of electron     225.0000000 magnetization      16.6000000
 augmentation part      225.0000000 magnetization      16.6000000

 Free energy of the ion-electron system (eV)
  ---------------------------------------------------
  alpha Z        PSCENC =      1225.61726867
  Ewald energy   TEWEN  =    -22245.90192762
  -Hartree energ DENC   =     -9358.02349254
  -exchange      EXHF   =         0.00000000
  -V(xc)+E(xc)   XCENC  =       975.11808648
  PAW double counting   =     27038.14100549   -32288.24043754
  entropy T*S    EENTRO =        -0.03352629
  eigenvalues    EBANDS =     -2130.09375583
  atomic energy  EATOM  =     36691.11340606
  Solvation  Ediel_sol  =         0.00000000
  ---------------------------------------------------
  free energy    TOTEN  =       -92.30337310 eV

  energy without entropy =      -92.26984681  energy(sigma->0) =      -92.28660995


--------------------------------------------------------------------------------------------------------




--------------------------------------- Iteration      1(   5)  ---------------------------------------


     EDDAV:  cpu time      1.3718: real time      1.3738
       DOS:  cpu time      0.0005: real time      0.0005
    CHARGE:  cpu time      0.0857: real time      0.0857
    MIXING:  cpu time      0.0036: real time      0.0037
    --------------------------------------------
      LOOP:  cpu time      1.4616: real time      1.4636

 eigenvalue-minimisations  :  2744
 total energy-change (2. order) :-0.7769814E+01  (-0.7518990E+01)
 number of electron     225.0000038 magnetization       4.2326894
 augmentation part      111.7249501 magnetization       3.7977098

 Broyden mixing:
  rms(total) = 0.56612E+01    rms(broyden)= 0.56612E+01
  rms(prec ) = 0.10290E+02
  weight for this iteration     100.00

 Free energy of the ion-electron system (eV)
  ---------------------------------------------------
  alpha Z        PSCENC =      1225.61726867
  Ewald energy   TEWEN  =    -22245.90192762
  -Hartree energ DENC   =     -9358.02349254
  -exchange      EXHF   =         0.00000000
  -V(xc)+E(xc)   XCENC  =       975.11808648
  PAW double counting   =     27038.14100549   -32288.24043754
  entropy T*S    EENTRO =        -0.01866633
  eigenvalues    EBANDS =     -2137.87842935
  atomic energy  EATOM  =     36691.11340606
  Solvation  Ediel_sol  =         0.00000000
  ---------------------------------------------------
  free energy    TOTEN  =      -100.07318667 eV

  energy without entropy =     -100.05452034  energy(sigma->0) =     -100.06385351


--------------------------------------------------------------------------------------------------------




--------------------------------------- Iteration      1(   6)  ---------------------------------------


    POTLOK:  cpu time      0.0122: real time      0.0125
    SETDIJ:  cpu time      0.0326: real time      0.0326
    EDDIAG:  cpu time      0.0843: real time      0.0843
  RMM-DIIS:  cpu time      0.8736: real time      0.8761
    ORTHCH:  cpu time      0.0327: real time      0.0327
       DOS:  cpu time      0.0005: real time      0.0005
    CHARGE:  cpu time      0.0816: real time      0.0816
    MIXING:  cpu time      0.0042: real time      0.0071
    --------------------------------------------
      LOOP:  cpu time      1.1216: real time      1.1274

 eigenvalue-minimisations  :  3600
 total energy-change (2. order) :-0.3873216E+03  (-0.6935889E+02)
 number of electron     225.0000039 magnetization       3.8327459
 augmentation part      126.6603716 magnetization       1.7658346

 Broyden mixing:
  rms(total) = 0.24812E+02    rms(broyden)= 0.24812E+02
  rms(prec ) = 0.30454E+02
  weight for this iteration     100.00

 eigenvalues of (default mixing * dielectric matrix)
  average eigenvalue GAMMA=   0.1195
  0.1195

 Free energy of the ion-electron system (eV)
  ---------------------------------------------------
  alpha Z        PSCENC =      1225.61726867
  Ewald energy   TEWEN  =    -22245.90192762
  -Hartree energ DENC   =     -9111.54169919
  -exchange      EXHF   =         0.00000000
  -V(xc)+E(xc)   XCENC  =       960.94527420
  PAW double counting   =     28685.70039909   -33887.28529733
  entropy T*S    EENTRO =        -0.01794445
  eigenvalues    EBANDS =     -2806.02423345
  atomic energy  EATOM  =     36691.11340606
  Solvation  Ediel_sol  =         0.00000000
  ---------------------------------------------------
  free energy    TOTEN  =      -487.39475401 eV

  energy without entropy =     -487.37680956  energy(sigma->0) =     -487.38578178


--------------------------------------------------------------------------------------------------------




--------------------------------------- Iteration      1(   7)  ---------------------------------------


    POTLOK:  cpu time      0.0116: real time      0.0124
    SETDIJ:  cpu time      0.0322: real time      0.0322
    EDDIAG:  cpu time      0.0844: real time      0.0845
  RMM-DIIS:  cpu time      0.7209: real time      0.7213
    ORTHCH:  cpu time      0.0327: real time      0.0327
       DOS:  cpu time      0.0005: real time      0.0005
    CHARGE:  cpu time      0.0803: real time      0.0803
    MIXING:  cpu time      0.0037: real time      0.0037
    --------------------------------------------
      LOOP:  cpu time      0.9663: real time      0.9676

 eigenvalue-minimisations  :  3240
 total energy-change (2. order) : 0.2178105E+03  (-0.1735491E+02)
 number of electron     225.0000039 magnetization       3.7165721
 augmentation part      126.7664291 magnetization       1.2621521

 Broyden mixing:
  rms(total) = 0.13842E+02    rms(broyden)= 0.13842E+02
  rms(prec ) = 0.20974E+02
  weight for this iteration     100.00

 eigenvalues of (default mixing * dielectric matrix)
  average eigenvalue GAMMA=   0.4717
  0.4717  0.4717

 Free energy of the ion-electron system (eV)
  ---------------------------------------------------
  alpha Z        PSCENC =      1225.61726867
  Ewald energy   TEWEN  =    -22245.90192762
  -Hartree energ DENC   =     -9163.62411450
  -exchange      EXHF   =         0.00000000
  -V(xc)+E(xc)   XCENC  =       963.75441536
  PAW double counting   =     28979.61430563   -34208.49431486
  entropy T*S    EENTRO =        -0.00497856
  eigenvalues    EBANDS =     -2511.65833592
  atomic energy  EATOM  =     36691.11340606
  Solvation  Ediel_sol  =         0.00000000
  ---------------------------------------------------
  free energy    TOTEN  =      -269.58427573 eV

  energy without entropy =     -269.57929717  energy(sigma->0) =     -269.58178645


--------------------------------------------------------------------------------------------------------




--------------------------------------- Iteration      1(   8)  ---------------------------------------


    POTLOK:  cpu time      0.0109: real time      0.0119
    SETDIJ:  cpu time      0.0315: real time      0.0315
    EDDIAG:  cpu time      0.0846: real time      0.0846
  RMM-DIIS:  cpu time      0.7418: real time      0.7421
    ORTHCH:  cpu time      0.0327: real time      0.0328
       DOS:  cpu time      0.0004: real time      0.0004
    CHARGE:  cpu time      0.0804: real time      0.0804
    MIXING:  cpu time      0.0040: real time      0.0040
    --------------------------------------------
      LOOP:  cpu time      0.9864: real time      0.9878

 eigenvalue-minimisations  :  3272
 total energy-change (2. order) : 0.1691646E+03  (-0.6897911E+01)
 number of electron     225.0000038 magnetization       1.8794903
 augmentation part      112.4289188 magnetization       1.7084323

 Broyden mixing:
  rms(total) = 0.48813E+01    rms(broyden)= 0.48813E+01
  rms(prec ) = 0.10372E+02
  weight for this iteration     100.00

 eigenvalues of (default mixing * dielectric matrix)
  average eigenvalue GAMMA=   0.4888
  0.8399  0.3133  0.3133

 Free energy of the ion-electron system (eV)
  ---------------------------------------------------
  alpha Z        PSCENC =      1225.61726867
  Ewald energy   TEWEN  =    -22245.90192762
  -Hartree energ DENC   =     -9259.29415539
  -exchange      EXHF   =         0.00000000
  -V(xc)+E(xc)   XCENC  =       968.65925748
  PAW double counting   =     29326.56064121   -34596.48539449
  entropy T*S    EENTRO =        -0.00610953
  eigenvalues    EBANDS =     -2210.68266537
  atomic energy  EATOM  =     36691.11340606
  Solvation  Ediel_sol  =         0.00000000
  ---------------------------------------------------
  free energy    TOTEN  =      -100.41967896 eV

  energy without entropy =     -100.41356943  energy(sigma->0) =     -100.41662419


--------------------------------------------------------------------------------------------------------




--------------------------------------- Iteration      1(   9)  ---------------------------------------


    POTLOK:  cpu time      0.0112: real time      0.0123
    SETDIJ:  cpu time      0.0323: real time      0.0323
    EDDIAG:  cpu time      0.0845: real time      0.0846
  RMM-DIIS:  cpu time      0.8016: real time      0.8020
    ORTHCH:  cpu time      0.0326: real time      0.0326
       DOS:  cpu time      0.0005: real time      0.0005
    CHARGE:  cpu time      0.0811: real time      0.0811
    MIXING:  cpu time      0.0039: real time      0.0039
    --------------------------------------------
      LOOP:  cpu time      1.0476: real time      1.0492

 eigenvalue-minimisations  :  3605
 total energy-change (2. order) : 0.1151917E+02  (-0.3507573E+01)
 number of electron     225.0000039 magnetization       2.1543626
 augmentation part      121.5277537 magnetization       2.0450478

 Broyden mixing:
  rms(total) = 0.32740E+01    rms(broyden)= 0.32740E+01
  rms(prec ) = 0.53420E+01
  weight for this iteration     100.00

 eigenvalues of (default mixing * dielectric matrix)
  average eigenvalue GAMMA=   0.3732
  0.7740  0.3180  0.3180  0.0827

 Free energy of the ion-electron system (eV)
  ---------------------------------------------------
  alpha Z        PSCENC =      1225.61726867
  Ewald energy   TEWEN  =    -22245.90192762
  -Hartree energ DENC   =     -9229.70870908
  -exchange      EXHF   =         0.00000000
  -V(xc)+E(xc)   XCENC  =       966.90436104
  PAW double counting   =     29993.39646191   -35261.63577392
  entropy T*S    EENTRO =        -0.02665729
  eigenvalues    EBANDS =     -2228.65893800
  atomic energy  EATOM  =     36691.11340606
  Solvation  Ediel_sol  =         0.00000000
  ---------------------------------------------------
  free energy    TOTEN  =       -88.90050822 eV

  energy without entropy =      -88.87385093  energy(sigma->0) =      -88.88717957


--------------------------------------------------------------------------------------------------------




--------------------------------------- Iteration      1(  10)  ---------------------------------------


    POTLOK:  cpu time      0.0111: real time      0.0123
    SETDIJ:  cpu time      0.0319: real time      0.0319
    EDDIAG:  cpu time      0.0845: real time      0.0845
  RMM-DIIS:  cpu time      0.8325: real time      0.8329
    ORTHCH:  cpu time      0.0327: real time      0.0327
       DOS:  cpu time      0.0005: real time      0.0005
    CHARGE:  cpu time      0.0805: real time      0.0805
    MIXING:  cpu time      0.0040: real time      0.0040
    --------------------------------------------
      LOOP:  cpu time      1.0775: real time      1.0792

 eigenvalue-minimisations  :  3709
 total energy-change (2. order) :-0.4211298E+00  (-0.4332522E+00)
 number of electron     225.0000038 magnetization       1.8409800
 augmentation part      120.5008523 magnetization       1.6661425

 Broyden mixing:
  rms(total) = 0.34764E+01    rms(broyden)= 0.34764E+01
  rms(prec ) = 0.44698E+01
  weight for this iteration     100.00

 eigenvalues of (default mixing * dielectric matrix)
  average eigenvalue GAMMA=   0.4000
  0.7351  0.3107  0.3107  0.3217  0.3217

 Free energy of the ion-electron system (eV)
  ---------------------------------------------------
  alpha Z        PSCENC =      1225.61726867
  Ewald energy   TEWEN  =    -22245.90192762
  -Hartree energ DENC   =     -9232.83275082
  -exchange      EXHF   =         0.00000000
  -V(xc)+E(xc)   XCENC  =       967.00559413
  PAW double counting   =     30004.96753894   -35275.94411465
  entropy T*S    EENTRO =        -0.03147409
  eigenvalues    EBANDS =     -2223.31517866
  atomic energy  EATOM  =     36691.11340606
  Solvation  Ediel_sol  =         0.00000000
  ---------------------------------------------------
  free energy    TOTEN  =       -89.32163803 eV

  energy without entropy =      -89.29016394  energy(sigma->0) =      -89.30590098


--------------------------------------------------------------------------------------------------------




--------------------------------------- Iteration      1(  11)  ---------------------------------------


    POTLOK:  cpu time      0.0115: real time      0.0123
    SETDIJ:  cpu time      0.0327: real time      0.0327
    EDDIAG:  cpu time      0.0846: real time      0.0846
  RMM-DIIS:  cpu time      0.8138: real time      0.8142
    ORTHCH:  cpu time      0.0327: real time      0.0327
       DOS:  cpu time      0.0005: real time      0.0005
    CHARGE:  cpu time      0.0817: real time      0.0817
    MIXING:  cpu time      0.0044: real time      0.0044
    --------------------------------------------
      LOOP:  cpu time      1.0619: real time      1.0630

 eigenvalue-minimisations  :  3629
 total energy-change (2. order) : 0.6961658E+00  (-0.4587917E-01)
 number of electron     225.0000038 magnetization       1.2782495
 augmentation part      120.3788507 magnetization       0.9572767

 Broyden mixing:
  rms(total) = 0.33731E+01    rms(broyden)= 0.33731E+01
  rms(prec ) = 0.42916E+01
  weight for this iteration     100.00

 eigenvalues of (default mixing * dielectric matrix)
  average eigenvalue GAMMA=   0.4215
  0.7509  0.4267  0.4267  0.3082  0.3082  0.3080

 Free energy of the ion-electron system (eV)
  ---------------------------------------------------
  alpha Z        PSCENC =      1225.61726867
  Ewald energy   TEWEN  =    -22245.90192762
  -Hartree energ DENC   =     -9233.32785075
  -exchange      EXHF   =         0.00000000
  -V(xc)+E(xc)   XCENC  =       966.98670506
  PAW double counting   =     30041.59329056   -35313.77497567
  entropy T*S    EENTRO =        -0.02583340
  eigenvalues    EBANDS =     -2220.90555519
  atomic energy  EATOM  =     36691.11340606
  Solvation  Ediel_sol  =         0.00000000
  ---------------------------------------------------
  free energy    TOTEN  =       -88.62547227 eV

  energy without entropy =      -88.59963886  energy(sigma->0) =      -88.61255556


--------------------------------------------------------------------------------------------------------




--------------------------------------- Iteration      1(  12)  ---------------------------------------


    POTLOK:  cpu time      0.0111: real time      0.0122
    SETDIJ:  cpu time      0.0328: real time      0.0328
    EDDIAG:  cpu time      0.0845: real time      0.0845
  RMM-DIIS:  cpu time      0.7784: real time      0.7788
    ORTHCH:  cpu time      0.0327: real time      0.0327
       DOS:  cpu time      0.0005: real time      0.0005
    CHARGE:  cpu time      0.0805: real time      0.0805
    MIXING:  cpu time      0.0042: real time      0.0042
    --------------------------------------------
      LOOP:  cpu time      1.0245: real time      1.0261

 eigenvalue-minimisations  :  3470
 total energy-change (2. order) :-0.9469906E+00  (-0.2209722E-01)
 number of electron     225.0000038 magnetization       0.4905086
 augmentation part      122.3349081 magnetization       0.2926757

 Broyden mixing:
  rms(total) = 0.32693E+01    rms(broyden)= 0.32693E+01
  rms(prec ) = 0.62854E+01
  weight for this iteration     100.00

 eigenvalues of (default mixing * dielectric matrix)
  average eigenvalue GAMMA=   0.4877
  0.8135  0.6784  0.6784  0.3690  0.3094  0.3094  0.2561

 Free energy of the ion-electron system (eV)
  ---------------------------------------------------
  alpha Z        PSCENC =      1225.61726867
  Ewald energy   TEWEN  =    -22245.90192762
  -Hartree energ DENC   =     -9229.97361495
  -exchange      EXHF   =         0.00000000
  -V(xc)+E(xc)   XCENC  =       966.81040908
  PAW double counting   =     30123.93013495   -35397.03496492
  entropy T*S    EENTRO =        -0.04540931
  eigenvalues    EBANDS =     -2224.08776483
  atomic energy  EATOM  =     36691.11340606
  Solvation  Ediel_sol  =         0.00000000
  ---------------------------------------------------
  free energy    TOTEN  =       -89.57246286 eV

  energy without entropy =      -89.52705355  energy(sigma->0) =      -89.54975820


--------------------------------------------------------------------------------------------------------




--------------------------------------- Iteration      1(  13)  ---------------------------------------


    POTLOK:  cpu time      0.0112: real time      0.0123
    SETDIJ:  cpu time      0.0330: real time      0.0330
    EDDIAG:  cpu time      0.0844: real time      0.0845
  RMM-DIIS:  cpu time      0.7998: real time      0.8002
    ORTHCH:  cpu time      0.0327: real time      0.0327
       DOS:  cpu time      0.0005: real time      0.0005
    CHARGE:  cpu time      0.0811: real time      0.0811
    MIXING:  cpu time      0.0043: real time      0.0043
    --------------------------------------------
      LOOP:  cpu time      1.0470: real time      1.0486

 eigenvalue-minimisations  :  3538
 total energy-change (2. order) :-0.6379847E+01  (-0.4874871E-01)
 number of electron     225.0000039 magnetization       0.4419621
 augmentation part      125.2970282 magnetization       0.1136923

 Broyden mixing:
  rms(total) = 0.51512E+01    rms(broyden)= 0.51511E+01
  rms(prec ) = 0.11046E+02
  weight for this iteration     100.00

 eigenvalues of (default mixing * dielectric matrix)
  average eigenvalue GAMMA=   0.4896
  0.7739  0.7739  0.8132  0.3797  0.3216  0.3216  0.2663  0.2663

 Free energy of the ion-electron system (eV)
  ---------------------------------------------------
  alpha Z        PSCENC =      1225.61726867
  Ewald energy   TEWEN  =    -22245.90192762
  -Hartree energ DENC   =     -9225.44415898
  -exchange      EXHF   =         0.00000000
  -V(xc)+E(xc)   XCENC  =       966.50700698
  PAW double counting   =     30316.53915812   -35591.01437166
  entropy T*S    EENTRO =        -0.02520115
  eigenvalues    EBANDS =     -2233.34349063
  atomic energy  EATOM  =     36691.11340606
  Solvation  Ediel_sol  =         0.00000000
  ---------------------------------------------------
  free energy    TOTEN  =       -95.95231020 eV

  energy without entropy =      -95.92710905  energy(sigma->0) =      -95.93970963


--------------------------------------------------------------------------------------------------------




--------------------------------------- Iteration      1(  14)  ---------------------------------------


    POTLOK:  cpu time      0.0110: real time      0.0121
    SETDIJ:  cpu time      0.0317: real time      0.0317
    EDDIAG:  cpu time      0.0844: real time      0.0844
  RMM-DIIS:  cpu time      0.7765: real time      0.7768
    ORTHCH:  cpu time      0.0327: real time      0.0327
       DOS:  cpu time      0.0005: real time      0.0005
    CHARGE:  cpu time      0.0804: real time      0.0804
    MIXING:  cpu time      0.0046: real time      0.0046
    --------------------------------------------
      LOOP:  cpu time      1.0218: real time      1.0233

 eigenvalue-minimisations  :  3446
 total energy-change (2. order) : 0.1161728E+01  (-0.2391169E-01)
 number of electron     225.0000039 magnetization      -0.0212484
 augmentation part      125.2727806 magnetization      -0.3290050

 Broyden mixing:
  rms(total) = 0.50394E+01    rms(broyden)= 0.50394E+01
  rms(prec ) = 0.10944E+02
  weight for this iteration     100.00

 eigenvalues of (default mixing * dielectric matrix)
  average eigenvalue GAMMA=   0.7457
  1.8420  1.8420  0.3828  0.7501  0.3257  0.3257  0.4210  0.4210  0.4010

 Free energy of the ion-electron system (eV)
  ---------------------------------------------------
  alpha Z        PSCENC =      1225.61726867
  Ewald energy   TEWEN  =    -22245.90192762
  -Hartree energ DENC   =     -9229.62349688
  -exchange      EXHF   =         0.00000000
  -V(xc)+E(xc)   XCENC  =       966.61557590
  PAW double counting   =     30351.69162225   -35628.17742676
  entropy T*S    EENTRO =        -0.02414009
  eigenvalues    EBANDS =     -2226.10146377
  atomic energy  EATOM  =     36691.11340606
  Solvation  Ediel_sol  =         0.00000000
  ---------------------------------------------------
  free energy    TOTEN  =       -94.79058222 eV

  energy without entropy =      -94.76644213  energy(sigma->0) =      -94.77851218


--------------------------------------------------------------------------------------------------------




--------------------------------------- Iteration      1(  15)  ---------------------------------------


    POTLOK:  cpu time      0.0111: real time      0.0119
    SETDIJ:  cpu time      0.0323: real time      0.0323
    EDDIAG:  cpu time      0.0843: real time      0.0844
  RMM-DIIS:  cpu time      0.8399: real time      0.8402
    ORTHCH:  cpu time      0.0328: real time      0.0328
       DOS:  cpu time      0.0005: real time      0.0005
    CHARGE:  cpu time      0.0803: real time      0.0804
    MIXING:  cpu time      0.0046: real time      0.0046
    --------------------------------------------
      LOOP:  cpu time      1.0859: real time      1.0870

 eigenvalue-minimisations  :  3757
 total energy-change (2. order) :-0.1147638E+01  (-0.3582067E+00)
 number of electron     225.0000038 magnetization      -0.5975230
 augmentation part      112.3557218 magnetization      -0.4417259

 Broyden mixing:
  rms(total) = 0.50735E+01    rms(broyden)= 0.50735E+01
  rms(prec ) = 0.99606E+01
  weight for this iteration     100.00

 eigenvalues of (default mixing * dielectric matrix)
  average eigenvalue GAMMA=   0.6780
  1.8136  1.0554  1.0554  0.3832  0.7121  0.4009  0.4009  0.3265  0.3265  0.3054

 Free energy of the ion-electron system (eV)
  ---------------------------------------------------
  alpha Z        PSCENC =      1225.61726867
  Ewald energy   TEWEN  =    -22245.90192762
  -Hartree energ DENC   =     -9264.45406460
  -exchange      EXHF   =         0.00000000
  -V(xc)+E(xc)   XCENC  =       968.01627319
  PAW double counting   =     30649.19786488   -35938.45029683
  entropy T*S    EENTRO =        -0.00681104
  eigenvalues    EBANDS =     -2181.06993256
  atomic energy  EATOM  =     36691.11340606
  Solvation  Ediel_sol  =         0.00000000
  ---------------------------------------------------
  free energy    TOTEN  =       -95.93821985 eV

  energy without entropy =      -95.93140881  energy(sigma->0) =      -95.93481433


--------------------------------------------------------------------------------------------------------




--------------------------------------- Iteration      1(  16)  ---------------------------------------


    POTLOK:  cpu time      0.0111: real time      0.0120
    SETDIJ:  cpu time      0.0325: real time      0.0325
    EDDIAG:  cpu time      0.0844: real time      0.0844
  RMM-DIIS:  cpu time      0.8003: real time      0.8006
    ORTHCH:  cpu time      0.0327: real time      0.0327
       DOS:  cpu time      0.0005: real time      0.0005
    CHARGE:  cpu time      0.0813: real time      0.0813
    MIXING:  cpu time      0.0050: real time      0.0050
    --------------------------------------------
      LOOP:  cpu time      1.0478: real time      1.0490

 eigenvalue-minimisations  :  3586
 total energy-change (2. order) : 0.1596911E+01  (-0.5646229E-01)
 number of electron     225.0000038 magnetization      -1.2015364
 augmentation part      112.6228430 magnetization      -0.9708015

 Broyden mixing:
  rms(total) = 0.43564E+01    rms(broyden)= 0.43564E+01
  rms(prec ) = 0.93072E+01
  weight for this iteration     100.00

 eigenvalues of (default mixing * dielectric matrix)
  average eigenvalue GAMMA=   0.6810
  1.9633  0.9924  0.9924  0.3834  0.7157  0.5012  0.5012  0.3239  0.3239  0.4575
  0.3362

 Free energy of the ion-electron system (eV)
  ---------------------------------------------------
  alpha Z        PSCENC =      1225.61726867
  Ewald energy   TEWEN  =    -22245.90192762
  -Hartree energ DENC   =     -9244.99633426
  -exchange      EXHF   =         0.00000000
  -V(xc)+E(xc)   XCENC  =       967.30668308
  PAW double counting   =     30830.12443528   -36121.05784238
  entropy T*S    EENTRO =        -0.01537465
  eigenvalues    EBANDS =     -2196.53162348
  atomic energy  EATOM  =     36691.11340606
  Solvation  Ediel_sol  =         0.00000000
  ---------------------------------------------------
  free energy    TOTEN  =       -94.34130929 eV

  energy without entropy =      -94.32593464  energy(sigma->0) =      -94.33362196


--------------------------------------------------------------------------------------------------------




--------------------------------------- Iteration      1(  17)  ---------------------------------------


    POTLOK:  cpu time      0.0115: real time      0.0123
    SETDIJ:  cpu time      0.0331: real time      0.0331
    EDDIAG:  cpu time      0.0842: real time      0.0843
  RMM-DIIS:  cpu time      0.8113: real time      0.8117
    ORTHCH:  cpu time      0.0327: real time      0.0327
       DOS:  cpu time      0.0005: real time      0.0005
    CHARGE:  cpu time      0.0801: real time      0.0801
    MIXING:  cpu time      0.0048: real time      0.0048
    --------------------------------------------
      LOOP:  cpu time      1.0582: real time      1.0594

 eigenvalue-minimisations  :  3607
 total energy-change (2. order) : 0.5023749E+01  (-0.1622077E+00)
 number of electron     225.0000038 magnetization      -0.7250962
 augmentation part      119.0502846 magnetization      -0.6867927

 Broyden mixing:
  rms(total) = 0.36101E+01    rms(broyden)= 0.36101E+01
  rms(prec ) = 0.37017E+01
  weight for this iteration     100.00

 eigenvalues of (default mixing * dielectric matrix)
  average eigenvalue GAMMA=   0.6419
  1.8583  0.9898  0.9898  0.3831  0.7055  0.5385  0.5385  0.3245  0.3245  0.3638
  0.3638  0.3227

 Free energy of the ion-electron system (eV)
  ---------------------------------------------------
  alpha Z        PSCENC =      1225.61726867
  Ewald energy   TEWEN  =    -22245.90192762
  -Hartree energ DENC   =     -9223.12513705
  -exchange      EXHF   =         0.00000000
  -V(xc)+E(xc)   XCENC  =       966.60083753
  PAW double counting   =     30941.05961206   -36230.36159129
  entropy T*S    EENTRO =        -0.01986209
  eigenvalues    EBANDS =     -2214.30016661
  atomic energy  EATOM  =     36691.11340606
  Solvation  Ediel_sol  =         0.00000000
  ---------------------------------------------------
  free energy    TOTEN  =       -89.31756031 eV

  energy without entropy =      -89.29769823  energy(sigma->0) =      -89.30762927


--------------------------------------------------------------------------------------------------------




--------------------------------------- Iteration      1(  18)  ---------------------------------------


    POTLOK:  cpu time      0.0111: real time      0.0122
    SETDIJ:  cpu time      0.0325: real time      0.0325
    EDDIAG:  cpu time      0.0846: real time      0.0847
  RMM-DIIS:  cpu time      0.8043: real time      0.8050
    ORTHCH:  cpu time      0.0327: real time      0.0327
       DOS:  cpu time      0.0005: real time      0.0005
    CHARGE:  cpu time      0.0811: real time      0.0812
    MIXING:  cpu time      0.0051: real time      0.0051
    --------------------------------------------
      LOOP:  cpu time      1.0519: real time      1.0538

 eigenvalue-minimisations  :  3380
 total energy-change (2. order) : 0.9063108E+00  (-0.7241041E-02)
 number of electron     225.0000038 magnetization      -0.2875581
 augmentation part      119.9016448 magnetization      -0.2636736

 Broyden mixing:
  rms(total) = 0.32922E+01    rms(broyden)= 0.32922E+01
  rms(prec ) = 0.38520E+01
  weight for this iteration     100.00

 eigenvalues of (default mixing * dielectric matrix)
  average eigenvalue GAMMA=   0.6532
  1.8779  1.1315  1.1315  0.3829  0.6949  0.4086  0.4086  0.5704  0.4534  0.4534
  0.3246  0.3246  0.3290

 Free energy of the ion-electron system (eV)
  ---------------------------------------------------
  alpha Z        PSCENC =      1225.61726867
  Ewald energy   TEWEN  =    -22245.90192762
  -Hartree energ DENC   =     -9223.42496673
  -exchange      EXHF   =         0.00000000
  -V(xc)+E(xc)   XCENC  =       966.49019923
  PAW double counting   =     30916.79161138   -36204.78682516
  entropy T*S    EENTRO =        -0.02122733
  eigenvalues    EBANDS =     -2214.28878801
  atomic energy  EATOM  =     36691.11340606
  Solvation  Ediel_sol  =         0.00000000
  ---------------------------------------------------
  free energy    TOTEN  =       -88.41124950 eV

  energy without entropy =      -88.39002217  energy(sigma->0) =      -88.40063584


--------------------------------------------------------------------------------------------------------




--------------------------------------- Iteration      1(  19)  ---------------------------------------


    POTLOK:  cpu time      0.0113: real time      0.0124
    SETDIJ:  cpu time      0.0324: real time      0.0325
    EDDIAG:  cpu time      0.0844: real time      0.0844
  RMM-DIIS:  cpu time      0.8008: real time      0.8011
    ORTHCH:  cpu time      0.0327: real time      0.0327
       DOS:  cpu time      0.0005: real time      0.0005
    CHARGE:  cpu time      0.0805: real time      0.0806
    MIXING:  cpu time      0.0052: real time      0.0052
    --------------------------------------------
      LOOP:  cpu time      1.0478: real time      1.0495

 eigenvalue-minimisations  :  3405
 total energy-change (2. order) : 0.3139216E+00  (-0.6123515E-02)
 number of electron     225.0000038 magnetization      -0.7061516
 augmentation part      120.9954232 magnetization      -0.3564862

 Broyden mixing:
  rms(total) = 0.19368E+01    rms(broyden)= 0.19367E+01
  rms(prec ) = 0.40098E+01
  weight for this iteration     100.00

 eigenvalues of (default mixing * dielectric matrix)
  average eigenvalue GAMMA=   0.6738
  2.0270  1.1765  1.1765  0.3829  0.4813  0.4813  0.7003  0.3244  0.3244  0.5933
  0.4817  0.4817  0.4699  0.3322

 Free energy of the ion-electron system (eV)
  ---------------------------------------------------
  alpha Z        PSCENC =      1225.61726867
  Ewald energy   TEWEN  =    -22245.90192762
  -Hartree energ DENC   =     -9220.12592935
  -exchange      EXHF   =         0.00000000
  -V(xc)+E(xc)   XCENC  =       966.34963944
  PAW double counting   =     30940.13347821   -36227.47922262
  entropy T*S    EENTRO =        -0.04847270
  eigenvalues    EBANDS =     -2217.75556801
  atomic energy  EATOM  =     36691.11340606
  Solvation  Ediel_sol  =         0.00000000
  ---------------------------------------------------
  free energy    TOTEN  =       -88.09732792 eV

  energy without entropy =      -88.04885522  energy(sigma->0) =      -88.07309157


--------------------------------------------------------------------------------------------------------




--------------------------------------- Iteration      1(  20)  ---------------------------------------


    POTLOK:  cpu time      0.0111: real time      0.0125
    SETDIJ:  cpu time      0.0323: real time      0.0324
    EDDIAG:  cpu time      0.0843: real time      0.0844
  RMM-DIIS:  cpu time      0.7910: real time      0.7912
    ORTHCH:  cpu time      0.0327: real time      0.0327
       DOS:  cpu time      0.0005: real time      0.0005
    CHARGE:  cpu time      0.0805: real time      0.0807
    MIXING:  cpu time      0.0054: real time      0.0054
    --------------------------------------------
      LOOP:  cpu time      1.0379: real time      1.0397

 eigenvalue-minimisations  :  3354
 total energy-change (2. order) :-0.2149186E+00  (-0.4689286E-02)
 number of electron     225.0000038 magnetization      -0.6312919
 augmentation part      118.0982647 magnetization      -0.2180899

 Broyden mixing:
  rms(total) = 0.55100E+00    rms(broyden)= 0.55077E+00
  rms(prec ) = 0.76740E+00
  weight for this iteration     100.00

 eigenvalues of (default mixing * dielectric matrix)
  average eigenvalue GAMMA=   0.6337
  2.0414  1.1682  1.1682  0.3829  0.4753  0.4753  0.7024  0.3244  0.3244  0.5923
  0.4789  0.4789  0.4882  0.3320  0.0731

 Free energy of the ion-electron system (eV)
  ---------------------------------------------------
  alpha Z        PSCENC =      1225.61726867
  Ewald energy   TEWEN  =    -22245.90192762
  -Hartree energ DENC   =     -9221.40215703
  -exchange      EXHF   =         0.00000000
  -V(xc)+E(xc)   XCENC  =       966.43602686
  PAW double counting   =     30964.64215285   -36253.24925842
  entropy T*S    EENTRO =        -0.03004200
  eigenvalues    EBANDS =     -2215.53771587
  atomic energy  EATOM  =     36691.11340606
  Solvation  Ediel_sol  =         0.00000000
  ---------------------------------------------------
  free energy    TOTEN  =       -88.31224648 eV

[...]
  296              map_forward                           0.004966                     80   6
  297                map_gather                            0.001000                   40   7
  298                m_alltoallv_z                         0.000558                   40   7
  299                map_scatter                           0.002693                   40   7
  300              map_backward                          0.005436                     96   6
  301                map_gather                            0.001322                   48   7
  302                m_alltoallv_z                         0.000562                   48   7
  303                map_scatter                           0.002735                   48   7
  304        m_sumb_d                              0.000114                           20   3
  305        forhar                                0.012081                            8   3
  306          m_sumb_d                              0.000190                          8   4
  307        strehar                               0.008564                            4   3
  308          m_sumb_d                              0.000020                          4   4
  309        chggra                                0.003492                            4   3
  310          fft3d_mpi                             0.002122                         12   4
  311            fftbrc_mpi                            0.001679                       12   5
  312              fftbas_plan_mpi                       0.001676                     12   6
  313                map_forward                           0.000908                   16   7
  314                  map_gather                            0.000196                  8   8
  315                  m_alltoallv_z                         0.000106                  8   8
  316                  map_scatter                           0.000460                  8   8
  317                map_backward                          0.000435                    8   7
  318                  map_gather                            0.000110                  4   8
  319                  m_alltoallv_z                         0.000047                  4   8
  320                  map_scatter                           0.000208                  4   8
  321          m_sumb_d                              0.000034                          8   4
  322          pothar                                0.000347                          4   4
  323            m_sumb_d                              0.000043                        4   5
  324        brmix                                 0.047879                            4   3
  325          m_sumb_d                              0.000230                         24   4
  326          brpre                                 0.000154                          8   4
  327          setg0                                 0.006073                          4   4
  328          broyd                                 0.034142                          4   4
  329            m_sumb_d                              0.002609                      183   5
  330            brget                                 0.007198                      928   5
  331            brsav                                 0.002182                      294   5
  332        m_bcast_d                             0.000113                            8   3
  333      potlok                                0.030501                              4   2
  334        fft3d_mpi                             0.019307                          104   3
  335          fftbrc_mpi                            0.015328                        104   4
  336            fftbas_plan_mpi                       0.015270                      104   5
  337              map_forward                           0.006800                    112   6
  338                map_gather                            0.001512                   64   7
  339                m_alltoallv_z                         0.000778                   64   7
  340                map_scatter                           0.003648                   64   7
  341              map_backward                          0.005356                     96   6
  342                map_gather                            0.001316                   48   7
  343                m_alltoallv_z                         0.000570                   48   7
  344                map_scatter                           0.002647                   48   7
  345        m_sumb_d                              0.000113                           20   3
  346        pothar                                0.000368                            4   3
  347          m_sumb_d                              0.000029                          4   4
  348        m_bcast_d                             0.000095                            8   3
  349      potlok_metagga                        0.000001                              4   2
  350      set_dd_magatom                        0.000016                              4   2
  351      set_dd_paw                            0.075544                              4   2
  352        m_sumb_d                              0.015525                           28   3
  353      wavpre_noio                           0.070214                              3   2
  354        stufak                                0.036861                            3   3
  355      densta                                0.001600                              1   2
  356        m_sumb_d                              0.001091                           40   3
 
 Flat profile
 ============
 
             routine name                   CPU           calls
 ---------------------------------------------------------------
 eccp                                   81.158215      950831
 raccmu_                                81.005955      139255
 phaser                                 45.184519        8272
 eccp_nl                                36.335720      660527
 i2                                     35.154527      135445
 redis_pw                               31.588429      124748
 w1_gemv                                29.583839     1248176
 eddiag                                 26.734967        1000
 eddrmm                                 26.178871        1000
 m_sumb_d                               24.475426      148188
 m_alltoall_d                           18.289906     3229404
 cnorma                                 17.449397      660527
 augmentation_charge                    16.162156        1004
 set_charge                             15.250258        1004
 set_dd_paw                             15.221021        1012
 hamilt_local                           14.900008      288000
 setdij_                                14.423316        1113
 fft3d                                  14.303743     2096180
 fftwav                                 13.557862     1281268
 soft_charge                            13.318197        1004
 init_acc                               11.488018           1
 overl1                                 10.401595      624088
 setup_precond                          10.179636      290304
 w1_copy                                 8.101559     1580733
 pw_charge                               7.900307      231448
 newband                                 7.553269      147319
 total_time                              7.089685           1
 w1_dscal                                6.873324     1139775
 w1_dot                                  6.070446      214619
 rpromu_acc                              5.485332      141847
 potlok                                  5.461616        1008
 apply_precond                           5.183703     1136921
 broyd                                   5.113600        1004
 w1_daxpy                                5.081652      891816
 racc0mu_acc                             4.969482      139255
 depsum                                  4.769033        1004
 w1_gaxpy                                4.622217      916986
 hamiltmu                                4.551775      139255
 redis_proj                              4.430009       74096
 kinhamil                                3.466084      814912
 acc_init_cublas                         3.421102           1
 vhamil                                  3.409346      814912
 fftext_mpi                              3.220002      814912
 fft3d_mpi                               3.180300      845244
 dfftw_execute                           3.042816       12072
 map_scatter                             2.798693       34356
 choleski                                2.429657        8032
 overl_mu                                2.129067      139255
 m_alltoallv_z                           2.031540       34356
 map_gather                              2.028302       34356
 eddav                                   1.962230           8
 zhegv                                   1.939096      231289
 elmin                                   1.917045           4
 brmix                                   1.832997        1004
 orth1                                   1.810412       91590
 brget                                   1.684365      221915
 fftwav_mpi                              1.672044     1281268
 lapack                                  1.598800        3810
 setg0                                   1.551933        1012
 orthch                                  1.380739        1004
 rspher_all                              1.333885          53
 fftbas_plan_mpi                         1.186311       30332
 i3                                      1.169647      135445
 acc_init_cusolver                       1.046041           1
 rpro_isp                                0.816814         208
 brsav                                   0.459441       63618
 lincom                                  0.449538       16096
 acc_cufft_makeplan                      0.316275          19
 overl                                   0.274361       28968
 map_forward                             0.224894       28336
 map_backward                            0.216129       32328
 densta                                  0.213371        1009
 m_bcast_z                               0.178920        4962
 i1                                      0.158384      135445
 fft_gq                                  0.127152        1004
 w1_projall                              0.118479      138103
 proall                                  0.097875           4
 m_bcast_d                               0.087250        9653
 pothar                                  0.086680        1012
 sphpro_fast                             0.064820           5
 truncate_high_frequency_w1              0.061681      817216
 ggemm                                   0.060576        4962
 force_and_stress                        0.053197           4
 stufak                                  0.049229           4
 brpre                                   0.040373        2008
 wavpre_noio                             0.033353           3
 fftbrc_mpi                              0.015205       30332
 strelo                                  0.013315           4
 forhar                                  0.011891           8
 strehar                                 0.008544           4
 strnlr                                  0.007102           4
 forloc                                  0.006041           4
 inisym                                  0.005396           1
 set_dd_magatom                          0.004086        1012
 vectorpot                               0.004063        1005
 fornlr                                  0.002395           4
 strkin                                  0.002170           4
 rsp                                     0.001955           4
 shift_bands_between_low_high            0.001117        8000
 chggra                                  0.000988           4
 fewald                                  0.000360           4
 brgrid                                  0.000273           1
 fordep                                  0.000225           4
 rcp                                     0.000100           4
 posmap                                  0.000099           2
 potlok_metagga                          0.000088        1008
 crpa_reader                             0.000025           1
 acc_cufft_makeplans                     0.000009           3
 redis_pw_over_bands                     0.000001           4
 rotate_active_occupied_orbital          0.000000           4
 ---------------------------------------------------------------
  summed up times     753.1192839145660     
 
 Accumulative profile
 ====================
 
             routine name                   CPU           calls
 ---------------------------------------------------------------
 total_time                            753.119284           1
 elmin                                 722.124356           4
 eddrmm                                456.843487        1000
 i3                                    122.754084      135445
 hamiltmu                              102.947167      139255
 i2                                    102.622684      135445
 raccmu_                                88.104504      139255
 eddiag                                 84.463577        1000
 eccp                                   81.158215      950831
 set_charge                             80.288300        1004
 cnorma                                 53.785117      660527
 newband                                51.296282      147319
 phaser                                 45.184519        8272
 w1_gemv                                39.985434     1248176
 redis_pw                               39.910751      124748
 eccp_nl                                36.335720      660527
 soft_charge                            35.476531        1004
 orthch                                 33.060227        1004
 m_sumb_d                               24.475426      148188
 fftwav_mpi                             24.317300     1281268
 fftwav                                 22.645257     1281268
 augmentation_charge                    22.032861        1004
 hamilt_local                           20.159534      288000
 fft3d_mpi                              19.940540      845244
 set_dd_paw                             19.168082        1012
 m_alltoall_d                           18.289906     3229404
 setdij_                                14.704227        1113
 redis_proj                             14.397594       74096
 fft3d                                  14.303743     2096180
 kinhamil                               12.141069      814912
 brmix                                  11.678171        1004
 fftbrc_mpi                             11.543891       30332
 fftbas_plan_mpi                        11.528686       30332
 init_acc                               11.488018           1
 potlok                                 11.083925        1008
 eddav                                  10.759165           8
 overl1                                 10.401595      624088
 setup_precond                          10.179636      290304
 fftext_mpi                              8.674985      814912
 broyd                                   8.201854        1004
 w1_copy                                 8.101559     1580733
 pw_charge                               7.900307      231448
 w1_dscal                                6.873324     1139775
 force_and_stress                        6.445886           4
 w1_dot                                  6.070446      214619
 rpromu_acc                              5.485332      141847
 apply_precond                           5.183703     1136921
 depsum                                  5.098764        1004
 w1_daxpy                                5.081652      891816
 map_backward                            4.987211       32328
 racc0mu_acc                             4.969482      139255
 w1_gaxpy                                4.622217      916986
 w1_projall                              4.608704      138103
 acc_init_cublas                         3.421102           1
 vhamil                                  3.409346      814912
 strnlr                                  3.403396           4
 fft_gq                                  3.219898        1004
 dfftw_execute                           3.042816       12072
 map_scatter                             2.798693       34356
 i1                                      2.453351      135445
 choleski                                2.429657        8032
 map_forward                             2.312348       28336
 rpro_isp                                2.270426         208
 overl_mu                                2.129067      139255
 m_alltoallv_z                           2.031540       34356
 map_gather                              2.028302       34356
 zhegv                                   1.939096      231289
 orth1                                   1.810412       91590
 brget                                   1.684365      221915
 lapack                                  1.598800        3810
 setg0                                   1.551933        1012
 rspher_all                              1.333885          53
 fornlr                                  1.136563           4
 acc_init_cusolver                       1.046041           1
 brsav                                   0.459441       63618
 lincom                                  0.449538       16096
 densta                                  0.419284        1009
 acc_cufft_makeplans                     0.316284           3
 acc_cufft_makeplan                      0.316275          19
 fordep                                  0.314906           4
 overl                                   0.274361       28968
 proall                                  0.244204           4
 m_bcast_z                               0.178920        4962
 pothar                                  0.095841        1012
 m_bcast_d                               0.087250        9653
 wavpre_noio                             0.070214           3
 sphpro_fast                             0.066951           5
 truncate_high_frequency_w1              0.061681      817216
 ggemm                                   0.060576        4962
 stufak                                  0.049229           4
 brpre                                   0.040373        2008
 strelo                                  0.013483           4
 forhar                                  0.012081           8
 strehar                                 0.008564           4
 forloc                                  0.006386           4
 inisym                                  0.005495           1
 set_dd_magatom                          0.004086        1012
 vectorpot                               0.004063        1005
 chggra                                  0.003492           4
 fewald                                  0.002706           4
 strkin                                  0.002214           4
 rsp                                     0.001955           4
 shift_bands_between_low_high            0.001117        8000
 brgrid                                  0.000273           1
 rcp                                     0.000100           4
 posmap                                  0.000099           2
 potlok_metagga                          0.000088        1008
 crpa_reader                             0.000025           1
 redis_pw_over_bands                     0.000001           4
 rotate_active_occupied_orbital          0.000000           4
 ---------------------------------------------------------------
 
Profiling took   2.535811  1.913779  0.003382  0.003308 seconds
Profiling took   2.205589 seconds
