 vasp.6.3.2 27Jun22 (build Jul  3 2023 11:46:21) complex                         
 executed on    LinuxNV_CrayMPICH date 2024.04.20  21:45:55
 running on    4 total cores
 distrk:  each k-point on    4 cores,    1 groups
 distr:  one band on NCORE=   1 cores,    4 groups


--------------------------------------------------------------------------------------------------------


 INCAR:
   ADDGRID = True
   ALGO = Normal
   EDIFF = 0.0011
   ENCUT = 520.0
   IBRION = -1
   ICHARG = 0
   ISIF = 3
   ISMEAR = -5
   ISPIN = 2
   ISTART = 1
   KPOINT_BSE = -1 0 0 0
   LAECHG = True
   LASPH = True
   LCHARG = True
   LELF = True
   LORBIT = 11
   LREAL = Auto
   LVHAR = True
   LWAVE = False
   MAGMOM = 2*7.0 17*5.0 3*0.6
   NELM = 1000
   NSW = 0
   PREC = accurate
   SIGMA = 0.05

 POTCAR:    PAW_PBE Gd 23Dec2003                  
 POTCAR:    PAW_PBE Mn_pv 02Aug2007               
 POTCAR:    PAW_PBE C 08Apr2002                   
 POTCAR:    PAW_PBE Gd 23Dec2003                  
   SHA256 =  58854b40b4643190560b0e2b62d2ab46bea96585f82c6231a0f4f44b8c3188dc Gd/POTCAR             
   COPYR  = (c) Copyright 23Dec2003 Georg Kresse                                                    
   COPYR  = This file is part of the software VASP. Any use, copying, and all other rights are regul
   COPYR  = If you do not have a valid VASP license, you may not use, copy or distribute this file. 
   VRHFIN =Gd : [core=Xe4]                                                                          
   LEXCH  = PE                                                                                      
   EATOM  =  3047.6032 eV,  223.9925 Ry                                                             
                                                                                                    
   TITEL  = PAW_PBE Gd 23Dec2003                                                                    
   LULTRA =        F    use ultrasoft PP ?                                                          
   IUNSCR =        1    unscreen: 0-lin 1-nonlin 2-no                                               
   RPACOR =    2.300    partial core radius                                                         
   POMASS =  157.250; ZVAL   =   18.000    mass and valenz                                          
   RCORE  =    2.800    outmost cutoff radius                                                       
   RWIGS  =    2.800; RWIGS  =    1.482    wigner-seitz radius (au A)                               
   ENMAX  =  256.472; ENMIN  =  192.354 eV                                                          
   RCLOC  =    2.316    cutoff for local pot                                                        
   LCOR   =        T    correct aug charges                                                         
   LPAW   =        T    paw PP                                                                      
   EAUG   =  537.243                                                                                
   DEXC   =    0.000                                                                                
   RMAX   =    2.857    core radius for proj-oper                                                   
   RAUG   =    1.300    factor for augmentation sphere                                              
   RDEP   =    2.921    radius for radial grids                                                     
   RDEPT  =    2.247    core radius for aug-charge                                                  
                                                                                                    
   Atomic configuration                                                                             
   14 entries                                                                                       
     n  l   j            E        occ.                                                              
     1  0  0.50    -50087.2354   2.0000                                                             
     2  0  0.50     -8269.2182   2.0000                                                             
     2  1  1.50     -7357.3672   6.0000                                                             
     3  0  0.50     -1833.2681   2.0000                                                             
     3  1  1.50     -1550.9376   6.0000                                                             
     3  2  2.50     -1178.7204  10.0000                                                             
     4  0  0.50      -369.2978   2.0000                                                             
     4  1  1.50      -276.2601   6.0000                                                             
     4  2  2.50      -147.6611  10.0000                                                             
     5  0  0.50       -49.7260   2.0000                                                             
     6  0  0.50        -4.1254   2.0000                                                             
     5  1  1.50       -27.2538   6.0000                                                             
     5  2  2.50        -2.5337   1.0000                                                             
     4  3  2.50        -8.7140   7.0000                                                             
   Description                                                                                      
     l       E           TYP  RCUT    TYP  RCUT                                                     
     0    -49.7259557     23  2.400                                                                 
     0     -4.1254107     23  2.400                                                                 
     1    -27.2537518     23  2.400                                                                 
     1     20.4087390     23  2.400                                                                 
     2     -2.5337329     23  2.500                                                                 
     2     13.6058260     23  2.500                                                                 
     3     -8.7140389     23  2.800                                                                 
     3     -9.5240782     23  2.800                                                                 
  local pseudopotential read in
  partial core-charges read in
  partial kinetic energy density read in
  atomic valenz-charges read in
  non local Contribution for L=            0  read in
    real space projection operators read in
  non local Contribution for L=            0  read in
    real space projection operators read in
  non local Contribution for L=            1  read in
    real space projection operators read in
  non local Contribution for L=            1  read in
    real space projection operators read in
  non local Contribution for L=            2  read in
    real space projection operators read in
  non local Contribution for L=            2  read in
    real space projection operators read in
  non local Contribution for L=            3  read in
    real space projection operators read in
  non local Contribution for L=            3  read in
    real space projection operators read in
    PAW grid and wavefunctions read in
 
   number of l-projection  operators is LMAX  =            8
   number of lm-projection operators is LMMAX =           32
 
 POTCAR:    PAW_PBE Mn_pv 02Aug2007               
   SHA256 =  c79df11ab18a0e3347296df6ded47bb5f18b2e4fbd621d0b5280d2eae24c30a0 Mn_pv/POTCAR          
   COPYR  = (c) Copyright 02Aug2007 Georg Kresse                                                    
   COPYR  = This file is part of the software VASP. Any use, copying, and all other rights are regul
   COPYR  = If you do not have a valid VASP license, you may not use, copy or distribute this file. 
   VRHFIN =Mn: 3p4s3d                                                                               
   LEXCH  = PE                                                                                      
   EATOM  =  2025.2664 eV,  148.8529 Ry                                                             
                                                                                                    
   TITEL  = PAW_PBE Mn_pv 02Aug2007                                                                 
   LULTRA =        F    use ultrasoft PP ?                                                          
   IUNSCR =        1    unscreen: 0-lin 1-nonlin 2-no                                               
   RPACOR =    2.080    partial core radius                                                         
   POMASS =   54.938; ZVAL   =   13.000    mass and valenz                                          
   RCORE  =    2.300    outmost cutoff radius                                                       
   RWIGS  =    2.500; RWIGS  =    1.323    wigner-seitz radius (au A)                               
   ENMAX  =  269.864; ENMIN  =  202.398 eV                                                          
   ICORE  =        3    local potential                                                             
   LCOR   =        T    correct aug charges                                                         
   LPAW   =        T    paw PP                                                                      
   EAUG   =  569.085                                                                                
   DEXC   =    0.000                                                                                
   RMAX   =    2.343    core radius for proj-oper                                                   
   RAUG   =    1.300    factor for augmentation sphere                                              
   RDEP   =    2.338    radius for radial grids                                                     
   RDEPT  =    1.798    core radius for aug-charge                                                  
                                                                                                    
   Atomic configuration                                                                             
    8 entries                                                                                       
     n  l   j            E        occ.                                                              
     1  0  0.50     -6424.8287   2.0000                                                             
     2  0  0.50      -739.1154   2.0000                                                             
     2  1  1.50      -625.3949   6.0000                                                             
     3  0  0.50       -81.6100   2.0000                                                             
     3  1  1.50       -50.4667   6.0000                                                             
     3  2  2.50        -3.3745   6.0000                                                             
     4  0  0.50        -4.1331   1.0000                                                             
     4  3  2.50        -1.3606   0.0000                                                             
   Description                                                                                      
     l       E           TYP  RCUT    TYP  RCUT                                                     
     1    -50.4666628     23  2.000                                                                 
     1     -1.3605826     23  2.000                                                                 
     2     -3.3744729     23  2.300                                                                 
     2     -4.7350555     23  2.300                                                                 
     0     -4.1331431     23  2.300                                                                 
     0      7.6656591     23  2.300                                                                 
     3      9.5240782     23  2.300                                                                 
  local pseudopotential read in
  partial core-charges read in
  partial kinetic energy density read in
  atomic valenz-charges read in
  non local Contribution for L=            1  read in
    real space projection operators read in
  non local Contribution for L=            1  read in
    real space projection operators read in
  non local Contribution for L=            2  read in
    real space projection operators read in
  non local Contribution for L=            2  read in
    real space projection operators read in
  non local Contribution for L=            0  read in
    real space projection operators read in
  non local Contribution for L=            0  read in
    real space projection operators read in
    PAW grid and wavefunctions read in
 
   number of l-projection  operators is LMAX  =            6
   number of lm-projection operators is LMMAX =           18
 
 POTCAR:    PAW_PBE C 08Apr2002                   
   SHA256 =  253f7b50bb8d59471dbedb8285d89021f4a42ed1a2c5d38a03a736e69125dd95 C/POTCAR              
   COPYR  = (c) Copyright 08Apr2002 Georg Kresse                                                    
   COPYR  = This file is part of the software VASP. Any use, copying, and all other rights are regul
   COPYR  = If you do not have a valid VASP license, you may not use, copy or distribute this file. 
   VRHFIN =C: s2p2                                                                                  
   LEXCH  = PE                                                                                      
   EATOM  =   147.1560 eV,   10.8157 Ry                                                             
                                                                                                    
   TITEL  = PAW_PBE C 08Apr2002                                                                     
   LULTRA =        F    use ultrasoft PP ?                                                          
   IUNSCR =        1    unscreen: 0-lin 1-nonlin 2-no                                               
   RPACOR =    1.200    partial core radius                                                         
   POMASS =   12.011; ZVAL   =    4.000    mass and valenz                                          
   RCORE  =    1.500    outmost cutoff radius                                                       
   RWIGS  =    1.630; RWIGS  =    0.863    wigner-seitz radius (au A)                               
   ENMAX  =  400.000; ENMIN  =  300.000 eV                                                          
   ICORE  =        2    local potential                                                             
   LCOR   =        T    correct aug charges                                                         
   LPAW   =        T    paw PP                                                                      
   EAUG   =  644.873                                                                                
   DEXC   =    0.000                                                                                
   RMAX   =    1.529    core radius for proj-oper                                                   
   RAUG   =    1.300    factor for augmentation sphere                                              
   RDEP   =    1.501    radius for radial grids                                                     
   RDEPT  =    1.300    core radius for aug-charge                                                  
                                                                                                    
   Atomic configuration                                                                             
    4 entries                                                                                       
     n  l   j            E        occ.                                                              
     1  0  0.50      -273.3789   2.0000                                                             
     2  0  0.50       -13.7508   2.0000                                                             
     2  1  0.50        -5.2854   2.0000                                                             
     3  2  1.50        -5.4423   0.0000                                                             
   Description                                                                                      
     l       E           TYP  RCUT    TYP  RCUT                                                     
     0    -13.7508458     23  1.200                                                                 
     0     -8.2022199     23  1.200                                                                 
     1     -5.2854383     23  1.500                                                                 
     1     34.0145650     23  1.500                                                                 
     2     -5.4423304      7  1.500                                                                 
  local pseudopotential read in
  partial core-charges read in
  partial kinetic energy density read in
  atomic valenz-charges read in
  non local Contribution for L=            0  read in
    real space projection operators read in
  non local Contribution for L=            0  read in
    real space projection operators read in
  non local Contribution for L=            1  read in
    real space projection operators read in
  non local Contribution for L=            1  read in
    real space projection operators read in
    PAW grid and wavefunctions read in
 
   number of l-projection  operators is LMAX  =            4
   number of lm-projection operators is LMMAX =            8
 
 Optimization of the real space projectors (new method)

 maximal supplied QI-value         = 13.42
 optimisation between [QCUT,QGAM] = [ 11.67, 23.35] = [ 38.16,152.62] Ry 
 Optimized for a Real-space Cutoff    1.63 Angstroem

   l    n(q)    QCUT    max X(q) W(low)/X(q) W(high)/X(q)  e(spline) 
   0     11    11.673    10.501    0.14E-04    0.17E-05    0.21E-07
   0     11    11.673     9.148    0.21E-04    0.32E-05    0.45E-07
   1     11    11.673     4.035    0.33E-05    0.11E-04    0.84E-07
   1     11    11.673     4.388    0.11E-04    0.47E-04    0.34E-06
   2     10    11.673    20.656    0.12E-04    0.28E-04    0.54E-06
   2     10    11.673    12.651    0.11E-04    0.26E-04    0.51E-06
   3     10    11.673    61.921    0.19E-03    0.22E-03    0.23E-06
   3     10    11.673    48.328    0.20E-03    0.23E-03    0.23E-06
 Optimization of the real space projectors (new method)

 maximal supplied QI-value         = 16.25
 optimisation between [QCUT,QGAM] = [ 11.54, 23.24] = [ 37.28,151.24] Ry 
 Optimized for a Real-space Cutoff    1.45 Angstroem

   l    n(q)    QCUT    max X(q) W(low)/X(q) W(high)/X(q)  e(spline) 
   1     10    11.539     3.658    0.56E-04    0.12E-03    0.13E-06
   1     10    11.539     5.612    0.11E-03    0.23E-03    0.24E-06
   2      9    11.539    55.373    0.45E-04    0.92E-04    0.22E-06
   2      9    11.539    50.863    0.47E-04    0.95E-04    0.22E-06
   0     10    11.539    79.536    0.46E-04    0.27E-04    0.11E-06
   0     10    11.539    38.668    0.38E-04    0.25E-04    0.10E-06
 Optimization of the real space projectors (new method)

 maximal supplied QI-value         = 25.13
 optimisation between [QCUT,QGAM] = [ 11.56, 23.12] = [ 37.43,149.72] Ry 
 Optimized for a Real-space Cutoff    1.04 Angstroem

   l    n(q)    QCUT    max X(q) W(low)/X(q) W(high)/X(q)  e(spline) 
   0      7    11.561   115.676    0.20E-03    0.60E-03    0.21E-06
   0      7    11.561    87.132    0.20E-03    0.59E-03    0.21E-06
   1      7    11.561     4.429    0.23E-03    0.35E-03    0.15E-06
   1      7    11.561     2.733    0.18E-03    0.25E-03    0.12E-06
  PAW_PBE Gd 23Dec2003                  :
 energy of atom  1       EATOM=-3047.6032
 kinetic energy error for atom=    0.0019 (will be added to EATOM!!)
  PAW_PBE Mn_pv 02Aug2007               :
 energy of atom  2       EATOM=-2025.2664
 kinetic energy error for atom=    0.0058 (will be added to EATOM!!)
  PAW_PBE C 08Apr2002                   :
 energy of atom  3       EATOM= -147.1560
 kinetic energy error for atom=    0.0071 (will be added to EATOM!!)
 
 
 POSCAR: Gd2 Mn17 C3
  positions in direct lattice
  No initial velocities read in
 exchange correlation table for  LEXCH =        8
   RHO(1)=    0.500       N(1)  =     2000
   RHO(2)=  100.500       N(2)  =     4000

 VTST: version 4.2, (08/11/21)

 CHAIN: initializing optimizer
 
 OPT: Using VASP Dynamics algorithm
 CHAIN: Read ICHAIN             0
 
 POSCAR: Gd2 Mn17 C3
  positions in direct lattice
  No initial velocities read in
 


--------------------------------------------------------------------------------------------------------


 ion  position               nearest neighbor table
   1  0.650  0.650  0.650-  20 2.49  21 2.49  22 2.49  14 3.12  13 3.12  12 3.12   7 3.13  10 3.13
                             6 3.13  11 3.13   8 3.13   9 3.13  15 3.15  17 3.15  16 3.15  18 3.20
   2  0.350  0.350  0.350-  20 2.49  21 2.49  22 2.49  17 3.12  16 3.12  15 3.12   8 3.13   9 3.13
                             6 3.13  11 3.13  10 3.13   7 3.13  12 3.15  13 3.15  14 3.15  19 3.20
   3  0.000  0.000  0.500-  13 2.42  14 2.42  16 2.42  17 2.42   7 2.44   8 2.44   9 2.44  10 2.44
                            18 2.65  19 2.65
   4  0.500  0.000  0.000-  14 2.42  17 2.42  15 2.42  12 2.42   8 2.44  10 2.44   6 2.44  11 2.44
                            18 2.65  19 2.65
   5  0.000  0.500  0.000-  13 2.42  16 2.42  15 2.42  12 2.42   7 2.44   9 2.44   6 2.44  11 2.44
                            18 2.65  19 2.65
   6  0.721  0.279  0.000-  20 1.90  10 2.40   9 2.40   5 2.44   4 2.44  17 2.58  13 2.58  19 2.67
                            18 2.67  12 2.69  15 2.69   2 3.13   1 3.13
   7  0.000  0.721  0.279-  21 1.90  11 2.40  10 2.40   5 2.44   3 2.44  15 2.58  14 2.58  18 2.67
                            19 2.67  16 2.69  13 2.69   1 3.13   2 3.13
   8  0.279  0.000  0.721-  22 1.90  11 2.40   9 2.40   4 2.44   3 2.44  12 2.58  16 2.58  19 2.67
                            18 2.67  14 2.69  17 2.69   2 3.13   1 3.13
   9  0.000  0.279  0.721-  21 1.90   6 2.40   8 2.40   5 2.44   3 2.44  12 2.58  17 2.58  19 2.67
                            18 2.67  13 2.69  16 2.69   2 3.13   1 3.13
  10  0.721  0.000  0.279-  22 1.90   6 2.40   7 2.40   4 2.44   3 2.44  15 2.58  13 2.58  18 2.67
                            19 2.67  17 2.69  14 2.69   1 3.13   2 3.13
  11  0.279  0.721  0.000-  20 1.90   8 2.40   7 2.40   5 2.44   4 2.44  16 2.58  14 2.58  19 2.67
                            18 2.67  12 2.69  15 2.69   2 3.13   1 3.13
  12  0.338  0.338  0.867-  20 1.90   5 2.42   4 2.42   9 2.58   8 2.58  19 2.58  16 2.65  17 2.65
                             6 2.69  11 2.69   1 3.12   2 3.15   2 3.34
  13  0.867  0.338  0.338-  21 1.90   5 2.42   3 2.42   6 2.58  10 2.58  19 2.58  17 2.65  15 2.65
                             9 2.69   7 2.69   1 3.12   2 3.15   2 3.34
  14  0.338  0.867  0.338-  22 1.90   4 2.42   3 2.42  11 2.58   7 2.58  19 2.58  16 2.65  15 2.65
                             8 2.69  10 2.69   1 3.12   2 3.15   2 3.34
  15  0.662  0.662  0.133-  20 1.90   5 2.42   4 2.42  10 2.58   7 2.58  18 2.58  13 2.65  14 2.65
                             6 2.69  11 2.69   2 3.12   1 3.15   1 3.34
  16  0.133  0.662  0.662-  21 1.90   5 2.42   3 2.42  11 2.58   8 2.58  18 2.58  14 2.65  12 2.65
                             7 2.69   9 2.69   2 3.12   1 3.15   1 3.34
  17  0.662  0.133  0.662-  22 1.90   4 2.42   3 2.42   6 2.58   9 2.58  18 2.58  13 2.65  12 2.65
                            10 2.69   8 2.69   2 3.12   1 3.15   1 3.34
  18  0.906  0.906  0.906-  19 2.34  17 2.58  16 2.58  15 2.58   3 2.65   4 2.65   5 2.65   7 2.67
                            10 2.67   9 2.67   8 2.67   6 2.67  11 2.67   1 3.20
  19  0.094  0.094  0.094-  18 2.34  14 2.58  13 2.58  12 2.58   3 2.65   4 2.65   5 2.65   8 2.67
                             9 2.67   7 2.67  10 2.67   6 2.67  11 2.67   2 3.20
  20  0.500  0.500  0.000-   6 1.90  11 1.90  12 1.90  15 1.90   1 2.49   2 2.49
  21  0.000  0.500  0.500-   7 1.90   9 1.90  13 1.90  16 1.90   1 2.49   2 2.49
  22  0.500  0.000  0.500-   8 1.90  10 1.90  14 1.90  17 1.90   1 2.49   2 2.49
 
  LATTYP: Found a trigonal (rhomboedric) cell.
 ALAT       =     6.4821188680
 COS(alpha) =     0.1192873118
  
  Lattice vectors:
  
 A1 = (   4.8492300000,  -4.3014920000,   0.0000000000)
 A2 = (   4.8492300000,   4.3014920000,   0.0000000000)
 A3 = (   1.0336070000,   0.0000000000,   6.3991810000)


Analysis of symmetry for initial positions (statically):
=====================================================================
 Subroutine PRICEL returns:
 Original cell was already a primitive cell.
 

 Routine SETGRP: Setting up the symmetry group for a 
 trigonal (rhombohedral) supercell.


 Subroutine GETGRP returns: Found 12 space group operations
 (whereof 12 operations were pure point group operations)
 out of a pool of 12 trial point group operations.


The static configuration has the point symmetry D_3d.


Analysis of symmetry for dynamics (positions and initial velocities):
=====================================================================
 Subroutine PRICEL returns:
 Original cell was already a primitive cell.
 

 Routine SETGRP: Setting up the symmetry group for a 
 trigonal (rhombohedral) supercell.


 Subroutine GETGRP returns: Found 12 space group operations
 (whereof 12 operations were pure point group operations)
 out of a pool of 12 trial point group operations.


The dynamic configuration has the point symmetry D_3d.


Analysis of structural, dynamic, and magnetic symmetry:
=====================================================================
 Subroutine PRICEL returns:
 Original cell was already a primitive cell.
 

 Routine SETGRP: Setting up the symmetry group for a 
 trigonal (rhombohedral) supercell.


 Subroutine GETGRP returns: Found 12 space group operations
 (whereof 12 operations were pure point group operations)
 out of a pool of 12 trial point group operations.


The overall configuration has the point symmetry D_3d.


 Subroutine INISYM returns: Found 12 space group operations
 (whereof 12 operations are pure point group operations),
 and found     1 'primitive' translations


----------------------------------------------------------------------------------------

                                     Primitive cell                                     

  volume of cell :     266.9601

  direct lattice vectors                    reciprocal lattice vectors
     4.849230000 -4.301492000  0.000000000     0.103109153 -0.116238738 -0.016654372
     4.849230000  4.301492000  0.000000000     0.103109153  0.116238738 -0.016654372
     1.033607000  0.000000000  6.399181000    -0.000000000  0.000000000  0.156269998

  length of vectors
     6.482118868  6.482118868  6.482118550     0.156269990  0.156269990  0.156269998

  position of ions in fractional coordinates (direct lattice)
     0.650163000  0.650163000  0.650163000
     0.349837000  0.349837000  0.349837000
     1.000000000  1.000000000  0.500000000
     0.500000000  0.000000000  0.000000000
     0.000000000  0.500000000  0.000000000
     0.721045000  0.278955000  0.000000000
     0.000000000  0.721045000  0.278955000
     0.278955000  1.000000000  0.721045000
     1.000000000  0.278955000  0.721045000
     0.721045000  0.000000000  0.278955000
     0.278955000  0.721045000  0.000000000
     0.338437000  0.338437000  0.867223000
     0.867223000  0.338437000  0.338437000
     0.338437000  0.867223000  0.338437000
     0.661563000  0.661563000  0.132777000
     0.132777000  0.661563000  0.661563000
     0.661563000  0.132777000  0.661563000
     0.906384000  0.906384000  0.906384000
     0.093616000  0.093616000  0.093616000
     0.500000000  0.500000000  0.000000000
     1.000000000  0.500000000  0.500000000
     0.500000000  1.000000000  0.500000000

  ion indices of the primitive-cell ions
   primitive index   ion index
                 1           1
                 2           2
                 3           3
                 4           4
                 5           5
                 6           6
                 7           7
                 8           8
                 9           9
                10          10
                11          11
                12          12
                13          13
                14          14
                15          15
                16          16
                17          17
                18          18
                19          19
                20          20
                21          21
                22          22

----------------------------------------------------------------------------------------

 
 
 KPOINTS: Kpoints from vasprun.xml                

Automatic generation of k-mesh.
 Grid dimensions read from file:
 generate k-points for:    4    4    4

 Generating k-lattice:

  Cartesian coordinates                     Fractional coordinates (reciprocal lattice)
     0.025777288 -0.029059684 -0.004163593     0.250000000  0.000000000 -0.000000000
     0.025777288  0.029059684 -0.004163593     0.000000000  0.250000000 -0.000000000
    -0.000000000  0.000000000  0.039067499     0.000000000  0.000000000  0.250000000

  Length of vectors
     0.039067497  0.039067497  0.039067499

  Shift w.r.t. Gamma in fractional coordinates (k-lattice)
     0.000000000  0.000000000  0.000000000

 TETIRR: Found     30 inequivalent tetrahedra from      384
 
 Subroutine IBZKPT returns following result:
 ===========================================
 
 Found     13 irreducible k-points:
 
 Following reciprocal coordinates:
            Coordinates               Weight
  0.000000  0.000000  0.000000      1.000000
  0.250000  0.000000  0.000000      6.000000
  0.500000  0.000000  0.000000      3.000000
  0.250000  0.250000  0.000000      6.000000
  0.500000  0.250000  0.000000     12.000000
 -0.250000  0.250000  0.000000      6.000000
  0.500000  0.500000  0.000000      3.000000
  0.250000  0.250000  0.250000      2.000000
  0.500000  0.250000  0.250000      6.000000
 -0.250000  0.250000  0.250000      6.000000
  0.500000  0.500000  0.250000      6.000000
 -0.250000  0.500000  0.250000      6.000000
  0.500000  0.500000  0.500000      1.000000
 
 Following cartesian coordinates:
            Coordinates               Weight
  0.000000  0.000000  0.000000      1.000000
  0.025777 -0.029060 -0.004164      6.000000
  0.051555 -0.058119 -0.008327      3.000000
  0.051555  0.000000 -0.008327      6.000000
  0.077332 -0.029060 -0.012491     12.000000
  0.000000  0.058119  0.000000      6.000000
  0.103109  0.000000 -0.016654      3.000000
  0.051555  0.000000  0.030740      2.000000
  0.077332 -0.029060  0.026577      6.000000
  0.000000  0.058119  0.039067      6.000000
  0.103109  0.000000  0.022413      6.000000
  0.025777  0.087179  0.034904      6.000000
  0.103109  0.000000  0.061481      1.000000
 


--------------------------------------------------------------------------------------------------------




 Dimension of arrays:
   k-points           NKPTS =     13   k-points in BZ     NKDIM =     13   number of bands    NBANDS=    212
   number of dos      NEDOS =    301   number of ions     NIONS =     22
   non local maximal  LDIM  =      8   non local SUM 2l+1 LMDIM =     32
   total plane-waves  NPLWV = 110592
   max r-space proj   IRMAX =   7526   max aug-charges    IRDMAX= 196228
   dimension x,y,z NGX =    48 NGY =   48 NGZ =   48
   dimension x,y,z NGXF=    96 NGYF=   96 NGZF=   96
   support grid    NGXF=   192 NGYF=  192 NGZF=  192
   ions per type =               2  17   3
   NGX,Y,Z   is equivalent  to a cutoff of  12.31, 12.31, 12.31 a.u.
   NGXF,Y,Z  is equivalent  to a cutoff of  24.62, 24.62, 24.62 a.u.

 SYSTEM =  unknown system                          
 POSCAR =  Gd2 Mn17 C3                             

 Startparameter for this run:
   NWRITE =      2    write-flag & timer
   PREC   = accura    normal or accurate (medium, high low for compatibility)
   ISTART =      0    job   : 0-new  1-cont  2-samecut
   ICHARG =      2    charge: 1-file 2-atom 10-const
   ISPIN  =      2    spin polarized calculation?
   LNONCOLLINEAR =      F non collinear calculations
   LSORBIT =      F    spin-orbit coupling
   INIWAV =      1    electr: 0-lowe 1-rand  2-diag
   LASPH  =      T    aspherical Exc in radial PAW
 Electronic Relaxation 1
   ENCUT  =  520.0 eV  38.22 Ry    6.18 a.u.  12.05 12.05 12.05*2*pi/ulx,y,z
   ENINI  =  520.0     initial cutoff
   ENAUG  =  644.9 eV  augmentation charge cutoff
   NELM   =   1000;   NELMIN=  2; NELMDL=  0     # of ELM steps 
   EDIFF  = 0.1E-02   stopping-criterion for ELM
   LREAL  =      T    real-space projection
   NLSPLINE    = F    spline interpolate recip. space projectors
   LCOMPAT=      F    compatible to vasp.4.4
   GGA_COMPAT  = T    GGA compatible to vasp.4.4-vasp.4.6
   LMAXPAW     = -100 max onsite density
   LMAXMIX     =    2 max onsite mixed and CHGCAR
   VOSKOWN=      0    Vosko Wilk Nusair interpolation
   ROPT   =   -0.00025  -0.00025  -0.00025
 Ionic relaxation
   EDIFFG = 0.1E-01   stopping-criterion for IOM
   NSW    =      0    number of steps for IOM
   NBLOCK =      1;   KBLOCK =      1    inner block; outer block 
   IBRION =     -1    ionic relax: 0-MD 1-quasi-New 2-CG
   NFREE  =      0    steps in history (QN), initial steepest desc. (CG)
   ISIF   =      3    stress and relaxation
   IWAVPR =     10    prediction:  0-non 1-charg 2-wave 3-comb
   ISYM   =      2    0-nonsym 1-usesym 2-fastsym
   LCORR  =      T    Harris-Foulkes like correction to forces

   POTIM  = 0.5000    time-step for ionic-motion
   TEIN   =    0.0    initial temperature
   TEBEG  =    0.0;   TEEND  =   0.0 temperature during run
   SMASS  =  -3.00    Nose mass-parameter (am)
   estimated Nose-frequenzy (Omega)   =  0.10E-29 period in steps = 0.13E+47 mass=  -0.960E-27a.u.
   SCALEE = 1.0000    scale energy and forces
   NPACO  =    256;   APACO  = 10.0  distance and # of slots for P.C.
   PSTRESS=    0.0 pullay stress

  Mass of Ions in am
   POMASS = 157.25 54.94 12.01
  Ionic Valenz
   ZVAL   =  18.00 13.00  4.00
  Atomic Wigner-Seitz radii
   RWIGS  =  -1.00 -1.00 -1.00
  virtual crystal weights 
   VCA    =   1.00  1.00  1.00
   NELECT =     269.0000    total number of electrons
   NUPDOWN=      -1.0000    fix difference up-down

 DOS related values:
   EMIN   =  10.00;   EMAX   =-10.00  energy-range for DOS
   EFERMI =   0.00
   ISMEAR =    -5;   SIGMA  =   0.05  broadening in eV -4-tet -1-fermi 0-gaus

 Electronic relaxation 2 (details)
   IALGO  =     38    algorithm
   LDIAG  =      T    sub-space diagonalisation (order eigenvalues)
   LSUBROT=      F    optimize rotation matrix (better conditioning)
   TURBO    =      0    0=normal 1=particle mesh
   IRESTART =      0    0=no restart 2=restart with 2 vectors
   NREBOOT  =      0    no. of reboots
   NMIN     =      0    reboot dimension
   EREF     =   0.00    reference energy to select bands
   IMIX   =      4    mixing-type and parameters
     AMIX     =   0.40;   BMIX     =  1.00
     AMIX_MAG =   1.60;   BMIX_MAG =  1.00
     AMIN     =   0.10
     WC   =   100.;   INIMIX=   1;  MIXPRE=   1;  MAXMIX= -45

 Intra band minimization:
   WEIMIN = 0.0000     energy-eigenvalue tresh-hold
   EBREAK =  0.13E-05  absolut break condition
   DEPER  =   0.30     relativ break condition  

   TIME   =   0.40     timestep for ELM

  volume/ion in A,a.u.               =      12.13        81.89
  Fermi-wavevector in a.u.,A,eV,Ry     =   1.641258  3.101528 36.650387  2.693727
  Thomas-Fermi vector in A             =   2.731759
 
 Write flags
   LWAVE        =      F    write WAVECAR
   LDOWNSAMPLE  =      F    k-point downsampling of WAVECAR
   LCHARG       =      T    write CHGCAR
   LVTOT        =      F    write LOCPOT, total local potential
   LVHAR        =      T    write LOCPOT, Hartree potential only
   LELF         =      T    write electronic localiz. function (ELF)
   LORBIT       =     11    0 simple, 1 ext, 2 COOP (PROOUT), +10 PAW based schemes


 Dipole corrections
   LMONO  =      F    monopole corrections only (constant potential shift)
   LDIPOL =      F    correct potential (dipole corrections)
   IDIPOL =      0    1-x, 2-y, 3-z, 4-all directions 
   EPSILON=  1.0000000 bulk dielectric constant

 Exchange correlation treatment:
   GGA     =    --    GGA type
   LEXCH   =     8    internal setting for exchange type
   LIBXC   =     F    Libxc                    
   VOSKOWN =     0    Vosko Wilk Nusair interpolation
   LHFCALC =     F    Hartree Fock is set to
   LHFONE  =     F    Hartree Fock one center treatment
   AEXX    =    0.0000 exact exchange contribution

 Linear response parameters
   LEPSILON=     F    determine dielectric tensor
   LRPA    =     F    only Hartree local field effects (RPA)
   LNABLA  =     F    use nabla operator in PAW spheres
   LVEL    =     F    velocity operator in full k-point grid
   CSHIFT  =0.1000    complex shift for real part using Kramers Kronig
   OMEGAMAX=  -1.0    maximum frequency
   DEG_THRESHOLD= 0.2000000E-02 threshold for treating states as degnerate
   RTIME   =   -0.100 relaxation time in fs
  (WPLASMAI=    0.000 imaginary part of plasma frequency in eV, 0.658/RTIME)
   DFIELD  = 0.0000000 0.0000000 0.0000000 field for delta impulse in time
 
  Optional k-point grid parameters
   LKPOINTS_OPT  =     F    use optional k-point grid
   KPOINTS_OPT_MODE=     1    mode for optional k-point grid
 
 Orbital magnetization related:
   ORBITALMAG=     F  switch on orbital magnetization
   LCHIMAG   =     F  perturbation theory with respect to B field
   DQ        =  0.001000  dq finite difference perturbation B field
   LLRAUG    =     F  two centre corrections for induced B field



--------------------------------------------------------------------------------------------------------


 Static calculation
 charge density and potential will be updated during run
 spin polarized calculation
 Variant of blocked Davidson
 Davidson routine will perform the subspace rotation
 perform sub-space diagonalisation
    after iterative eigenvector-optimisation
 modified Broyden-mixing scheme, WC =      100.0
 initial mixing is a Kerker type mixing with AMIX =  0.4000 and BMIX =      1.0000
 Hartree-type preconditioning will be used
 using additional bands            77
 real space projection scheme for non local part
 use partial core corrections
 calculate Harris-corrections to forces 
   (improved forces if not selfconsistent)
 use gradient corrections 
 use of overlap-Matrix (Vanderbilt PP)
 Fermi weights with tetrahedron method with Bloechl corrections


--------------------------------------------------------------------------------------------------------


  energy-cutoff  :      520.00
  volume of cell :      266.96
      direct lattice vectors                 reciprocal lattice vectors
     4.849230000 -4.301492000  0.000000000     0.103109153 -0.116238738 -0.016654372
     4.849230000  4.301492000  0.000000000     0.103109153  0.116238738 -0.016654372
     1.033607000  0.000000000  6.399181000    -0.000000000  0.000000000  0.156269998

  length of vectors
     6.482118868  6.482118868  6.482118550     0.156269990  0.156269990  0.156269998


 
 k-points in units of 2pi/SCALE and weight: Kpoints from vasprun.xml                
   0.00000000  0.00000000  0.00000000       0.016
   0.02577729 -0.02905968 -0.00416359       0.094
   0.05155458 -0.05811937 -0.00832719       0.047
   0.05155458  0.00000000 -0.00832719       0.094
   0.07733187 -0.02905968 -0.01249078       0.188
   0.00000000  0.05811937  0.00000000       0.094
   0.10310915  0.00000000 -0.01665437       0.047
   0.05155458  0.00000000  0.03074031       0.031
   0.07733187 -0.02905968  0.02657672       0.094
   0.00000000  0.05811937  0.03906750       0.094
   0.10310915  0.00000000  0.02241313       0.094
   0.02577729  0.08717905  0.03490391       0.094
   0.10310915  0.00000000  0.06148063       0.016
 
 k-points in reciprocal lattice and weights: Kpoints from vasprun.xml                
   0.00000000  0.00000000  0.00000000       0.016
   0.25000000  0.00000000  0.00000000       0.094
   0.50000000  0.00000000  0.00000000       0.047
   0.25000000  0.25000000  0.00000000       0.094
   0.50000000  0.25000000  0.00000000       0.188
  -0.25000000  0.25000000  0.00000000       0.094
   0.50000000  0.50000000  0.00000000       0.047
   0.25000000  0.25000000  0.25000000       0.031
   0.50000000  0.25000000  0.25000000       0.094
  -0.25000000  0.25000000  0.25000000       0.094
   0.50000000  0.50000000  0.25000000       0.094
  -0.25000000  0.50000000  0.25000000       0.094
   0.50000000  0.50000000  0.50000000       0.016
 
 position of ions in fractional coordinates (direct lattice) 
   0.65016300  0.65016300  0.65016300
   0.34983700  0.34983700  0.34983700
   0.00000000  0.00000000  0.50000000
   0.50000000  0.00000000  0.00000000
   0.00000000  0.50000000  0.00000000
   0.72104500  0.27895500  0.00000000
   0.00000000  0.72104500  0.27895500
   0.27895500  0.00000000  0.72104500
   0.00000000  0.27895500  0.72104500
   0.72104500  0.00000000  0.27895500
   0.27895500  0.72104500  0.00000000
   0.33843700  0.33843700  0.86722300
   0.86722300  0.33843700  0.33843700
   0.33843700  0.86722300  0.33843700
   0.66156300  0.66156300  0.13277700
   0.13277700  0.66156300  0.66156300
   0.66156300  0.13277700  0.66156300
   0.90638400  0.90638400  0.90638400
   0.09361600  0.09361600  0.09361600
   0.50000000  0.50000000  0.00000000
   0.00000000  0.50000000  0.50000000
   0.50000000  0.00000000  0.50000000
 
 position of ions in cartesian coordinates  (Angst):
   6.97759288 -0.00000000  4.16051072
   3.75447412  0.00000000  2.23867028
   0.51680350  0.00000000  3.19959050
   2.42461500 -2.15074600  0.00000000
   2.42461500  2.15074600  0.00000000
   4.84923000 -1.90164660  0.00000000
   3.78484289  3.10156930  1.78508354
   2.09799411 -1.19992270  4.61409746
   2.09799411  1.19992270  4.61409746
   3.78484289 -3.10156930  1.78508354
   4.84923000  1.90164660  0.00000000
   4.17868547 -0.00000000  5.54951694
   6.19633349 -2.27456875  2.16571962
   6.19633349  2.27456875  2.16571962
   6.55338153 -0.00000000  0.84966406
   4.53573351  2.27456875  4.23346138
   4.53573351 -2.27456875  4.23346138
   9.72737382  0.00000000  5.80011527
   1.00469318 -0.00000000  0.59906573
   4.84923000  0.00000000  0.00000000
   2.94141850  2.15074600  3.19959050
   2.94141850 -2.15074600  3.19959050
 


--------------------------------------------------------------------------------------------------------


 k-point   1 :   0.0000 0.0000 0.0000  plane waves:    7119
 k-point   2 :   0.2500 0.0000 0.0000  plane waves:    7171
 k-point   3 :   0.5000 0.0000 0.0000  plane waves:    7184
 k-point   4 :   0.2500 0.2500 0.0000  plane waves:    7171
 k-point   5 :   0.5000 0.2500 0.0000  plane waves:    7196
 k-point   6 :  -0.2500 0.2500 0.0000  plane waves:    7182
 k-point   7 :   0.5000 0.5000 0.0000  plane waves:    7190
 k-point   8 :   0.2500 0.2500 0.2500  plane waves:    7194
 k-point   9 :   0.5000 0.2500 0.2500  plane waves:    7187
 k-point  10 :  -0.2500 0.2500 0.2500  plane waves:    7182
 k-point  11 :   0.5000 0.5000 0.2500  plane waves:    7193
 k-point  12 :  -0.2500 0.5000 0.2500  plane waves:    7206
 k-point  13 :   0.5000 0.5000 0.5000  plane waves:    7174

 maximum and minimum number of plane-waves per node :      7206     7119

 maximum number of plane-waves:      7206
 maximum index in each direction: 
   IXMAX=   12   IYMAX=   12   IZMAX=   12
   IXMIN=  -12   IYMIN=  -12   IZMIN=  -12


 serial   3D FFT for wavefunctions
 parallel 3D FFT for charge:
    minimum data exchange during FFTs selected (reduces bandwidth)


 total amount of memory used by VASP MPI-rank0   282563. kBytes
=======================================================================

   base      :      30000. kBytes
   nonlr-proj:      21011. kBytes
   fftplans  :      33021. kBytes
   grid      :      28717. kBytes
   one-center:       2162. kBytes
   wavefun   :     167652. kBytes
 
     INWAV:  cpu time      0.0001: real time      0.0004
 Broyden mixing: mesh for mixing (old mesh)
   NGX = 25   NGY = 25   NGZ = 25
  (NGX  = 96   NGY  = 96   NGZ  = 96)
  gives a total of  15625 points

 initial charge density was supplied:
 charge density of overlapping atoms calculated
 number of electron     269.0000000 magnetization     100.8000000
 keeping initial charge density in first step


--------------------------------------------------------------------------------------------------------


 Maximum index for non-local projection operator          7254
 Maximum index for augmentation-charges         47568 (set IRDMAX)


--------------------------------------------------------------------------------------------------------


 First call to EWALD:  gamma=   0.275
 Maximum number of real-space cells 3x 3x 3
 Maximum number of reciprocal cells 3x 3x 3

    FEWALD:  cpu time      0.0012: real time      0.0012


--------------------------------------- Iteration      1(   1)  ---------------------------------------


    POTLOK:  cpu time      0.1392: real time      0.2022
    SETDIJ:  cpu time      3.2441: real time      3.2455
     EDDAV:  cpu time      7.0291: real time      7.0407
 BZINTS: Fermi energy:   26.360682;  269.000000 electrons
         Band energy: 0.102348E+04;  BLOECHL correction:   -0.110900
       DOS:  cpu time      0.0503: real time      0.0503
    --------------------------------------------
      LOOP:  cpu time     10.4627: real time     10.5387

 eigenvalue-minimisations  : 16276
 total energy-change (2. order) : 0.3815039E+04  (-0.1238678E+05)
 number of electron     269.0000000 magnetization     100.8000000
 augmentation part      269.0000000 magnetization     100.8000000

 Free energy of the ion-electron system (eV)
  ---------------------------------------------------
  alpha Z        PSCENC =      2290.56772227
  Ewald energy   TEWEN  =    -30520.47084150
  -Hartree energ DENC   =    -10124.26094832
  -exchange      EXHF   =         0.00000000
  -V(xc)+E(xc)   XCENC  =      1446.62895141
  PAW double counting   =     33286.70599649   -34553.69202742
  entropy T*S    EENTRO =         0.00000000
  eigenvalues    EBANDS =      1023.48050739
  atomic energy  EATOM  =     40966.07985633
  Solvation  Ediel_sol  =         0.00000000
  ---------------------------------------------------
  free energy    TOTEN  =      3815.03921664 eV

  energy without entropy =     3815.03921664  energy(sigma->0) =     3815.03921664


--------------------------------------------------------------------------------------------------------




--------------------------------------- Iteration      1(   2)  ---------------------------------------


     EDDAV:  cpu time      6.0668: real time      6.0726
 BZINTS: Fermi energy:   13.150842;  269.000000 electrons
         Band energy:-0.238472E+04;  BLOECHL correction:   -0.076453
       DOS:  cpu time      0.0514: real time      0.0514
    --------------------------------------------
      LOOP:  cpu time      6.1181: real time      6.1240

 eigenvalue-minimisations  : 13800
 total energy-change (2. order) :-0.3408200E+04  (-0.3097350E+04)
 number of electron     269.0000000 magnetization     100.8000000
 augmentation part      269.0000000 magnetization     100.8000000

 Free energy of the ion-electron system (eV)
  ---------------------------------------------------
  alpha Z        PSCENC =      2290.56772227
  Ewald energy   TEWEN  =    -30520.47084150
  -Hartree energ DENC   =    -10124.26094832
  -exchange      EXHF   =         0.00000000
  -V(xc)+E(xc)   XCENC  =      1446.62895141
  PAW double counting   =     33286.70599649   -34553.69202742
  entropy T*S    EENTRO =         0.00000000
  eigenvalues    EBANDS =     -2384.71955773
  atomic energy  EATOM  =     40966.07985633
  Solvation  Ediel_sol  =         0.00000000
  ---------------------------------------------------
  free energy    TOTEN  =       406.83915151 eV

  energy without entropy =      406.83915151  energy(sigma->0) =      406.83915151


--------------------------------------------------------------------------------------------------------




--------------------------------------- Iteration      1(   3)  ---------------------------------------


     EDDAV:  cpu time      5.1672: real time      5.1716
 BZINTS: Fermi energy:   10.212596;  269.000000 electrons
         Band energy:-0.293841E+04;  BLOECHL correction:   -0.015456
       DOS:  cpu time      0.0489: real time      0.0489
    --------------------------------------------
      LOOP:  cpu time      5.2161: real time      5.2205

 eigenvalue-minimisations  : 11032
 total energy-change (2. order) :-0.5536906E+03  (-0.4828027E+03)
 number of electron     269.0000000 magnetization     100.8000000
 augmentation part      269.0000000 magnetization     100.8000000

 Free energy of the ion-electron system (eV)
  ---------------------------------------------------
  alpha Z        PSCENC =      2290.56772227
  Ewald energy   TEWEN  =    -30520.47084150
  -Hartree energ DENC   =    -10124.26094832
  -exchange      EXHF   =         0.00000000
  -V(xc)+E(xc)   XCENC  =      1446.62895141
  PAW double counting   =     33286.70599649   -34553.69202742
  entropy T*S    EENTRO =         0.00000000
  eigenvalues    EBANDS =     -2938.41018845
  atomic energy  EATOM  =     40966.07985633
  Solvation  Ediel_sol  =         0.00000000
  ---------------------------------------------------
  free energy    TOTEN  =      -146.85147920 eV

  energy without entropy =     -146.85147920  energy(sigma->0) =     -146.85147920


--------------------------------------------------------------------------------------------------------




--------------------------------------- Iteration      1(   4)  ---------------------------------------


     EDDAV:  cpu time      5.5941: real time      5.5975
 BZINTS: Fermi energy:    9.902727;  269.000000 electrons
         Band energy:-0.300979E+04;  BLOECHL correction:   -0.023003
       DOS:  cpu time      0.0477: real time      0.0477
    --------------------------------------------
      LOOP:  cpu time      5.6418: real time      5.6452

 eigenvalue-minimisations  : 12204
 total energy-change (2. order) :-0.7137795E+02  (-0.6587143E+02)
 number of electron     269.0000000 magnetization     100.8000000
 augmentation part      269.0000000 magnetization     100.8000000

 Free energy of the ion-electron system (eV)
  ---------------------------------------------------
  alpha Z        PSCENC =      2290.56772227
  Ewald energy   TEWEN  =    -30520.47084150
  -Hartree energ DENC   =    -10124.26094832
  -exchange      EXHF   =         0.00000000
  -V(xc)+E(xc)   XCENC  =      1446.62895141
  PAW double counting   =     33286.70599649   -34553.69202742
  entropy T*S    EENTRO =         0.00000000
  eigenvalues    EBANDS =     -3009.78814162
  atomic energy  EATOM  =     40966.07985633
  Solvation  Ediel_sol  =         0.00000000
  ---------------------------------------------------
  free energy    TOTEN  =      -218.22943237 eV

  energy without entropy =     -218.22943237  energy(sigma->0) =     -218.22943237


--------------------------------------------------------------------------------------------------------




--------------------------------------- Iteration      1(   5)  ---------------------------------------


     EDDAV:  cpu time      6.3750: real time      6.3794
 BZINTS: Fermi energy:    9.882322;  269.000000 electrons
         Band energy:-0.301401E+04;  BLOECHL correction:   -0.022072
       DOS:  cpu time      0.0467: real time      0.0467
    CHARGE:  cpu time      0.2581: real time      0.2582
    MIXING:  cpu time      0.0020: real time      0.0020
    --------------------------------------------
      LOOP:  cpu time      6.6818: real time      6.6864

 eigenvalue-minimisations  : 14400
 total energy-change (2. order) :-0.4220800E+01  (-0.4148725E+01)
 number of electron     269.0000003 magnetization      56.0615659
 augmentation part      131.7842117 magnetization      38.9180382

 Broyden mixing:
  rms(total) = 0.12600E+02    rms(broyden)= 0.12600E+02
  rms(prec ) = 0.20169E+02
  weight for this iteration     100.00

 Free energy of the ion-electron system (eV)
  ---------------------------------------------------
  alpha Z        PSCENC =      2290.56772227
  Ewald energy   TEWEN  =    -30520.47084150
  -Hartree energ DENC   =    -10124.26094832
  -exchange      EXHF   =         0.00000000
  -V(xc)+E(xc)   XCENC  =      1446.62895141
  PAW double counting   =     33286.70599649   -34553.69202742
  entropy T*S    EENTRO =         0.00000000
  eigenvalues    EBANDS =     -3014.00894180
  atomic energy  EATOM  =     40966.07985633
  Solvation  Ediel_sol  =         0.00000000
  ---------------------------------------------------
  free energy    TOTEN  =      -222.45023255 eV

  energy without entropy =     -222.45023255  energy(sigma->0) =     -222.45023255


--------------------------------------------------------------------------------------------------------




--------------------------------------- Iteration      1(   6)  ---------------------------------------


    POTLOK:  cpu time      0.0082: real time      0.0089
    SETDIJ:  cpu time      3.1917: real time      3.1929
     EDDAV:  cpu time      7.0755: real time      7.0803
 BZINTS: Fermi energy:    5.262312;  269.000000 electrons
         Band energy:-0.422706E+04;  BLOECHL correction:   -0.062311
       DOS:  cpu time      0.0518: real time      0.0519
    CHARGE:  cpu time      0.2550: real time      0.2551
    MIXING:  cpu time      0.0026: real time      0.0058
    --------------------------------------------
      LOOP:  cpu time     10.5848: real time     10.5949

 eigenvalue-minimisations  : 16280
 total energy-change (2. order) :-0.1038888E+04  (-0.8790382E+03)
 number of electron     269.0000002 magnetization      46.6466852
 augmentation part      159.0584183 magnetization      37.8952306

 Broyden mixing:
  rms(total) = 0.17877E+02    rms(broyden)= 0.17877E+02
  rms(prec ) = 0.37384E+02
  weight for this iteration     100.00

 eigenvalues of (default mixing * dielectric matrix)
  average eigenvalue GAMMA=   0.5009
  0.5009

 Free energy of the ion-electron system (eV)
  ---------------------------------------------------
  alpha Z        PSCENC =      2290.56772227
  Ewald energy   TEWEN  =    -30520.47084150
  -Hartree energ DENC   =     -9548.12855700
  -exchange      EXHF   =         0.00000000
  -V(xc)+E(xc)   XCENC  =      1394.90179444
  PAW double counting   =     35538.40808145   -37155.63659488
  entropy T*S    EENTRO =         0.00000000
  eigenvalues    EBANDS =     -4227.06009981
  atomic energy  EATOM  =     40966.07985633
  Solvation  Ediel_sol  =         0.00000000
  ---------------------------------------------------
  free energy    TOTEN  =     -1261.33863871 eV

  energy without entropy =    -1261.33863871  energy(sigma->0) =    -1261.33863871


--------------------------------------------------------------------------------------------------------




--------------------------------------- Iteration      1(   7)  ---------------------------------------


    POTLOK:  cpu time      0.0086: real time      0.0090
    SETDIJ:  cpu time      3.2072: real time      3.2089
     EDDAV:  cpu time      7.3089: real time      7.3124
 BZINTS: Fermi energy:    9.199443;  269.000000 electrons
         Band energy:-0.325409E+04;  BLOECHL correction:   -0.015671
       DOS:  cpu time      0.0492: real time      0.0493
    CHARGE:  cpu time      0.2535: real time      0.2536
    MIXING:  cpu time      0.0022: real time      0.0022
    --------------------------------------------
      LOOP:  cpu time     10.8297: real time     10.8355

 eigenvalue-minimisations  : 17344
 total energy-change (2. order) : 0.8058863E+03  (-0.3602422E+02)
 number of electron     269.0000003 magnetization      44.1778660
 augmentation part      131.6541847 magnetization      34.3468965

 Broyden mixing:
  rms(total) = 0.10075E+02    rms(broyden)= 0.10075E+02
  rms(prec ) = 0.20428E+02
  weight for this iteration     100.00

 eigenvalues of (default mixing * dielectric matrix)
  average eigenvalue GAMMA=   0.4986
  0.4986  0.4986

 Free energy of the ion-electron system (eV)
  ---------------------------------------------------
  alpha Z        PSCENC =      2290.56772227
  Ewald energy   TEWEN  =    -30520.47084150
  -Hartree energ DENC   =     -9855.72576079
  -exchange      EXHF   =         0.00000000
  -V(xc)+E(xc)   XCENC  =      1400.22060142
  PAW double counting   =     36637.67480008   -38119.70428801
  entropy T*S    EENTRO =         0.00000000
  eigenvalues    EBANDS =     -3254.09440302
  atomic energy  EATOM  =     40966.07985633
  Solvation  Ediel_sol  =         0.00000000
  ---------------------------------------------------
  free energy    TOTEN  =      -455.45231322 eV

  energy without entropy =     -455.45231322  energy(sigma->0) =     -455.45231322


--------------------------------------------------------------------------------------------------------




--------------------------------------- Iteration      1(   8)  ---------------------------------------


    POTLOK:  cpu time      0.0081: real time      0.0091
    SETDIJ:  cpu time      3.1874: real time      3.1886
     EDDAV:  cpu time      7.6558: real time      7.6597
 BZINTS: Fermi energy:    9.172360;  269.000000 electrons
         Band energy:-0.332095E+04;  BLOECHL correction:   -0.018104
       DOS:  cpu time      0.0460: real time      0.0460
    CHARGE:  cpu time      0.2535: real time      0.2537
    MIXING:  cpu time      0.0022: real time      0.0022
    --------------------------------------------
      LOOP:  cpu time     11.1531: real time     11.1592

 eigenvalue-minimisations  : 18124
 total energy-change (2. order) : 0.1364224E+03  (-0.1422653E+02)
 number of electron     269.0000002 magnetization      41.9469624
 augmentation part      131.2271382 magnetization      32.3431736

 Broyden mixing:
  rms(total) = 0.93873E+01    rms(broyden)= 0.93872E+01
  rms(prec ) = 0.19642E+02
  weight for this iteration     100.00

 eigenvalues of (default mixing * dielectric matrix)
  average eigenvalue GAMMA=   0.4297
  0.5691  0.5691  0.1511

 Free energy of the ion-electron system (eV)
  ---------------------------------------------------
  alpha Z        PSCENC =      2290.56772227
  Ewald energy   TEWEN  =    -30520.47084150
  -Hartree energ DENC   =     -9713.27461343
  -exchange      EXHF   =         0.00000000
  -V(xc)+E(xc)   XCENC  =      1392.28444949
  PAW double counting   =     36498.06336592   -37911.32614765
  entropy T*S    EENTRO =         0.00000000
  eigenvalues    EBANDS =     -3320.95375067
  atomic energy  EATOM  =     40966.07985633
  Solvation  Ediel_sol  =         0.00000000
  ---------------------------------------------------
  free energy    TOTEN  =      -319.02995926 eV

  energy without entropy =     -319.02995926  energy(sigma->0) =     -319.02995926


--------------------------------------------------------------------------------------------------------




--------------------------------------- Iteration      1(   9)  ---------------------------------------


    POTLOK:  cpu time      0.0085: real time      0.0093
    SETDIJ:  cpu time      3.1966: real time      3.1983
     EDDAV:  cpu time      7.2431: real time      7.2473
 BZINTS: Fermi energy:    8.706251;  269.000000 electrons
         Band energy:-0.338443E+04;  BLOECHL correction:   -0.007846
       DOS:  cpu time      0.0510: real time      0.0510
    CHARGE:  cpu time      0.2560: real time      0.2562
    MIXING:  cpu time      0.0024: real time      0.0024
    --------------------------------------------
      LOOP:  cpu time     10.7576: real time     10.7644

 eigenvalue-minimisations  : 16848
 total energy-change (2. order) : 0.1326662E+03  (-0.4386764E+01)
 number of electron     269.0000003 magnetization      27.2930676
 augmentation part      133.6534350 magnetization      18.2019370

 Broyden mixing:
  rms(total) = 0.32660E+01    rms(broyden)= 0.32660E+01
  rms(prec ) = 0.61367E+01
  weight for this iteration     100.00

 eigenvalues of (default mixing * dielectric matrix)
  average eigenvalue GAMMA=   0.4879
  0.9778  0.4137  0.4137  0.1465

 Free energy of the ion-electron system (eV)
  ---------------------------------------------------
  alpha Z        PSCENC =      2290.56772227
  Ewald energy   TEWEN  =    -30520.47084150
  -Hartree energ DENC   =     -9574.10728353
  -exchange      EXHF   =         0.00000000
  -V(xc)+E(xc)   XCENC  =      1384.76766247
  PAW double counting   =     36327.75816059   -37676.52975157
  entropy T*S    EENTRO =         0.00000000
  eigenvalues    EBANDS =     -3384.42932478
  atomic energy  EATOM  =     40966.07985633
  Solvation  Ediel_sol  =         0.00000000
  ---------------------------------------------------
  free energy    TOTEN  =      -186.36379972 eV

  energy without entropy =     -186.36379972  energy(sigma->0) =     -186.36379972


--------------------------------------------------------------------------------------------------------




--------------------------------------- Iteration      1(  10)  ---------------------------------------


    POTLOK:  cpu time      0.0085: real time      0.0090
    SETDIJ:  cpu time      3.1970: real time      3.1983
     EDDAV:  cpu time      6.9385: real time      6.9421
 BZINTS: Fermi energy:    8.053294;  269.000000 electrons
         Band energy:-0.361312E+04;  BLOECHL correction:   -0.022146
       DOS:  cpu time      0.0485: real time      0.0485
    CHARGE:  cpu time      0.2531: real time      0.2532
    MIXING:  cpu time      0.0023: real time      0.0023
    --------------------------------------------
      LOOP:  cpu time     10.4479: real time     10.4534

 eigenvalue-minimisations  : 16064
 total energy-change (2. order) :-0.8890969E+02  (-0.8016880E+01)
 number of electron     269.0000003 magnetization      23.8036614
 augmentation part      140.9023018 magnetization      17.3158443

 Broyden mixing:
  rms(total) = 0.96770E+01    rms(broyden)= 0.96769E+01
  rms(prec ) = 0.18873E+02
  weight for this iteration     100.00

 eigenvalues of (default mixing * dielectric matrix)
  average eigenvalue GAMMA=   0.4516
  1.0897  0.3904  0.3904  0.2247  0.1630

 Free energy of the ion-electron system (eV)
  ---------------------------------------------------
  alpha Z        PSCENC =      2290.56772227
  Ewald energy   TEWEN  =    -30520.47084150
  -Hartree energ DENC   =     -9462.35528360
  -exchange      EXHF   =         0.00000000
  -V(xc)+E(xc)   XCENC  =      1376.10226387
  PAW double counting   =     36596.53224415   -37908.61310956
  entropy T*S    EENTRO =         0.00000000
  eigenvalues    EBANDS =     -3613.11633993
  atomic energy  EATOM  =     40966.07985633
  Solvation  Ediel_sol  =         0.00000000
  ---------------------------------------------------
  free energy    TOTEN  =      -275.27348798 eV

  energy without entropy =     -275.27348798  energy(sigma->0) =     -275.27348798


--------------------------------------------------------------------------------------------------------




--------------------------------------- Iteration      1(  11)  ---------------------------------------


    POTLOK:  cpu time      0.0083: real time      0.0092
    SETDIJ:  cpu time      3.2056: real time      3.2072
     EDDAV:  cpu time      6.0707: real time      6.0765
 BZINTS: Fermi energy:    7.946423;  269.000000 electrons
         Band energy:-0.351899E+04;  BLOECHL correction:   -0.025972
       DOS:  cpu time      0.0481: real time      0.0481
    CHARGE:  cpu time      0.2558: real time      0.2561
    MIXING:  cpu time      0.0028: real time      0.0028
    --------------------------------------------
      LOOP:  cpu time      9.5912: real time      9.5999

 eigenvalue-minimisations  : 13600
 total energy-change (2. order) : 0.4690884E+02  (-0.3489177E+01)
 number of electron     269.0000003 magnetization      21.8588646
 augmentation part      139.7591375 magnetization      16.9409996

 Broyden mixing:
  rms(total) = 0.75787E+01    rms(broyden)= 0.75786E+01
  rms(prec ) = 0.15827E+02
  weight for this iteration     100.00

 eigenvalues of (default mixing * dielectric matrix)
  average eigenvalue GAMMA=   0.3978
  1.0951  0.3821  0.3821  0.2345  0.1760  0.1170

 Free energy of the ion-electron system (eV)
  ---------------------------------------------------
  alpha Z        PSCENC =      2290.56772227
  Ewald energy   TEWEN  =    -30520.47084150
  -Hartree energ DENC   =     -9483.65796723
  -exchange      EXHF   =         0.00000000
  -V(xc)+E(xc)   XCENC  =      1375.34968512
  PAW double counting   =     36869.51379571   -38206.75217236
  entropy T*S    EENTRO =         0.00000000
  eigenvalues    EBANDS =     -3518.99472821
  atomic energy  EATOM  =     40966.07985633
  Solvation  Ediel_sol  =         0.00000000
  ---------------------------------------------------
  free energy    TOTEN  =      -228.36464989 eV

  energy without entropy =     -228.36464989  energy(sigma->0) =     -228.36464989


--------------------------------------------------------------------------------------------------------




--------------------------------------- Iteration      1(  12)  ---------------------------------------


    POTLOK:  cpu time      0.0086: real time      0.0090
    SETDIJ:  cpu time      3.2327: real time      3.2356
     EDDAV:  cpu time      6.7610: real time      6.7664
 BZINTS: Fermi energy:    8.823479;  269.000000 electrons
         Band energy:-0.342304E+04;  BLOECHL correction:   -0.025334
       DOS:  cpu time      0.0462: real time      0.0462
    CHARGE:  cpu time      0.2571: real time      0.2573
    MIXING:  cpu time      0.0025: real time      0.0025
    --------------------------------------------
      LOOP:  cpu time     10.3080: real time     10.3170

 eigenvalue-minimisations  : 15480
 total energy-change (2. order) : 0.1610818E+02  (-0.1669514E+01)
 number of electron     269.0000002 magnetization      17.9059843
 augmentation part      130.9334293 magnetization      12.6207515

 Broyden mixing:
  rms(total) = 0.70851E+01    rms(broyden)= 0.70850E+01
  rms(prec ) = 0.15307E+02
  weight for this iteration     100.00

 eigenvalues of (default mixing * dielectric matrix)
  average eigenvalue GAMMA=   0.4622
  0.9952  0.9952  0.3307  0.3307  0.3035  0.1559  0.1244

 Free energy of the ion-electron system (eV)
  ---------------------------------------------------
  alpha Z        PSCENC =      2290.56772227
  Ewald energy   TEWEN  =    -30520.47084150
  -Hartree energ DENC   =     -9522.16123365
  -exchange      EXHF   =         0.00000000
  -V(xc)+E(xc)   XCENC  =      1376.19114809
  PAW double counting   =     37142.11015801   -38521.53572589
  entropy T*S    EENTRO =         0.00000000
  eigenvalues    EBANDS =     -3423.03755442
  atomic energy  EATOM  =     40966.07985633
  Solvation  Ediel_sol  =         0.00000000
  ---------------------------------------------------
  free energy    TOTEN  =      -212.25647077 eV

  energy without entropy =     -212.25647077  energy(sigma->0) =     -212.25647077


--------------------------------------------------------------------------------------------------------




--------------------------------------- Iteration      1(  13)  ---------------------------------------


    POTLOK:  cpu time      0.0081: real time      0.0089
    SETDIJ:  cpu time      3.1864: real time      3.1887
     EDDAV:  cpu time      6.7648: real time      6.7697
 BZINTS: Fermi energy:    7.982126;  269.000000 electrons
         Band energy:-0.359005E+04;  BLOECHL correction:   -0.018864
       DOS:  cpu time      0.0472: real time      0.0472
    CHARGE:  cpu time      0.2553: real time      0.2554
    MIXING:  cpu time      0.0026: real time      0.0026
    --------------------------------------------
      LOOP:  cpu time     10.2644: real time     10.2725

 eigenvalue-minimisations  : 15432
 total energy-change (2. order) :-0.4937274E+02  (-0.9614044E+00)
 number of electron     269.0000003 magnetization      14.5314257
 augmentation part      139.3742750 magnetization      11.2505968

 Broyden mixing:
  rms(total) = 0.76419E+01    rms(broyden)= 0.76418E+01
  rms(prec ) = 0.16218E+02
  weight for this iteration     100.00

 eigenvalues of (default mixing * dielectric matrix)
  average eigenvalue GAMMA=   0.5550
  1.6420  0.9104  0.6616  0.3711  0.3711  0.1876  0.1743  0.1216

 Free energy of the ion-electron system (eV)
  ---------------------------------------------------
  alpha Z        PSCENC =      2290.56772227
  Ewald energy   TEWEN  =    -30520.47084150
  -Hartree energ DENC   =     -9455.08859707
  -exchange      EXHF   =         0.00000000
  -V(xc)+E(xc)   XCENC  =      1372.39808091
  PAW double counting   =     37083.67568039   -38408.73910031
  entropy T*S    EENTRO =         0.00000000
  eigenvalues    EBANDS =     -3590.05201355
  atomic energy  EATOM  =     40966.07985633
  Solvation  Ediel_sol  =         0.00000000
  ---------------------------------------------------
  free energy    TOTEN  =      -261.62921255 eV

  energy without entropy =     -261.62921255  energy(sigma->0) =     -261.62921255


--------------------------------------------------------------------------------------------------------




--------------------------------------- Iteration      1(  14)  ---------------------------------------


    POTLOK:  cpu time      0.0084: real time      0.0096
    SETDIJ:  cpu time      3.1940: real time      3.1962
     EDDAV:  cpu time      6.3832: real time      6.3866
 BZINTS: Fermi energy:    7.909883;  269.000000 electrons
         Band energy:-0.355676E+04;  BLOECHL correction:   -0.022705
       DOS:  cpu time      0.0429: real time      0.0429
    CHARGE:  cpu time      0.2549: real time      0.2552
    MIXING:  cpu time      0.0026: real time      0.0026
    --------------------------------------------
      LOOP:  cpu time      9.8860: real time      9.8931

 eigenvalue-minimisations  : 14600
 total energy-change (2. order) : 0.2159240E+02  (-0.3706972E+00)
 number of electron     269.0000003 magnetization      13.5585157
 augmentation part      139.5350037 magnetization      10.9220221

 Broyden mixing:
  rms(total) = 0.73782E+01    rms(broyden)= 0.73782E+01
  rms(prec ) = 0.15767E+02
  weight for this iteration     100.00

 eigenvalues of (default mixing * dielectric matrix)
  average eigenvalue GAMMA=   0.5246
  1.7138  0.9034  0.6573  0.3742  0.3742  0.2060  0.2060  0.1641  0.1222

 Free energy of the ion-electron system (eV)
  ---------------------------------------------------
  alpha Z        PSCENC =      2290.56772227
  Ewald energy   TEWEN  =    -30520.47084150
  -Hartree energ DENC   =     -9450.06422129
  -exchange      EXHF   =         0.00000000
  -V(xc)+E(xc)   XCENC  =      1371.69607407
  PAW double counting   =     37288.04295968   -38629.12695572
  entropy T*S    EENTRO =         0.00000000
  eigenvalues    EBANDS =     -3556.76140957
  atomic energy  EATOM  =     40966.07985633
  Solvation  Ediel_sol  =         0.00000000
  ---------------------------------------------------
  free energy    TOTEN  =      -240.03681575 eV

  energy without entropy =     -240.03681575  energy(sigma->0) =     -240.03681575


--------------------------------------------------------------------------------------------------------




--------------------------------------- Iteration      1(  15)  ---------------------------------------


    POTLOK:  cpu time      0.0081: real time      0.0092
    SETDIJ:  cpu time      3.1843: real time      3.1854
     EDDAV:  cpu time      6.5882: real time      6.5923
 BZINTS: Fermi energy:    7.890174;  269.000000 electrons
         Band energy:-0.352441E+04;  BLOECHL correction:   -0.021422
       DOS:  cpu time      0.0484: real time      0.0484
    CHARGE:  cpu time      0.2553: real time      0.2555
    MIXING:  cpu time      0.0028: real time      0.0028
    --------------------------------------------
      LOOP:  cpu time     10.0871: real time     10.0936

 eigenvalue-minimisations  : 15144
 total energy-change (2. order) : 0.1699714E+02  (-0.2120536E+00)
 number of electron     269.0000003 magnetization      12.1960710
 augmentation part      139.5656294 magnetization       9.9018872

 Broyden mixing:
  rms(total) = 0.70854E+01    rms(broyden)= 0.70854E+01
  rms(prec ) = 0.15113E+02
  weight for this iteration     100.00

 eigenvalues of (default mixing * dielectric matrix)
  average eigenvalue GAMMA=   0.5327
  1.8774  0.8073  0.6514  0.6514  0.3586  0.3586  0.2149  0.1679  0.1236  0.1163

 Free energy of the ion-electron system (eV)
  ---------------------------------------------------
  alpha Z        PSCENC =      2290.56772227
  Ewald energy   TEWEN  =    -30520.47084150
  -Hartree energ DENC   =     -9455.23725376
  -exchange      EXHF   =         0.00000000
  -V(xc)+E(xc)   XCENC  =      1371.86458270
  PAW double counting   =     37374.70640530   -38726.13563774
  entropy T*S    EENTRO =         0.00000000
  eigenvalues    EBANDS =     -3524.41450712
  atomic energy  EATOM  =     40966.07985633
  Solvation  Ediel_sol  =         0.00000000
  ---------------------------------------------------
  free energy    TOTEN  =      -223.03967352 eV

  energy without entropy =     -223.03967352  energy(sigma->0) =     -223.03967352


--------------------------------------------------------------------------------------------------------




--------------------------------------- Iteration      1(  16)  ---------------------------------------


    POTLOK:  cpu time      0.0086: real time      0.0092
    SETDIJ:  cpu time      3.2225: real time      3.2237
     EDDAV:  cpu time      6.8500: real time      6.8535
 BZINTS: Fermi energy:    8.696914;  269.000000 electrons
         Band energy:-0.344968E+04;  BLOECHL correction:   -0.017623
       DOS:  cpu time      0.0483: real time      0.0483
    CHARGE:  cpu time      0.2549: real time      0.2551
    MIXING:  cpu time      0.0030: real time      0.0030
    --------------------------------------------
      LOOP:  cpu time     10.3872: real time     10.3928

 eigenvalue-minimisations  : 15712
 total energy-change (2. order) : 0.2031815E+02  (-0.7431315E+00)
 number of electron     269.0000002 magnetization      10.8094468
 augmentation part      131.2884453 magnetization       7.8340830

 Broyden mixing:
  rms(total) = 0.65873E+01    rms(broyden)= 0.65872E+01
  rms(prec ) = 0.14081E+02
  weight for this iteration     100.00

 eigenvalues of (default mixing * dielectric matrix)
  average eigenvalue GAMMA=   0.5134
  2.0177  0.7975  0.7975  0.4612  0.3659  0.3659  0.2178  0.2178  0.1629  0.1245
  0.1188

 Free energy of the ion-electron system (eV)
  ---------------------------------------------------
  alpha Z        PSCENC =      2290.56772227
  Ewald energy   TEWEN  =    -30520.47084150
  -Hartree energ DENC   =     -9483.72206188
  -exchange      EXHF   =         0.00000000
  -V(xc)+E(xc)   XCENC  =      1373.00498945
  PAW double counting   =     37544.28278187   -38922.77905909
  entropy T*S    EENTRO =         0.00000000
  eigenvalues    EBANDS =     -3449.68490680
  atomic energy  EATOM  =     40966.07985633
  Solvation  Ediel_sol  =         0.00000000
  ---------------------------------------------------
  free energy    TOTEN  =      -202.72151935 eV

  energy without entropy =     -202.72151935  energy(sigma->0) =     -202.72151935


--------------------------------------------------------------------------------------------------------




--------------------------------------- Iteration      1(  17)  ---------------------------------------


    POTLOK:  cpu time      0.0084: real time      0.0089
    SETDIJ:  cpu time      3.2171: real time      3.2193
     EDDAV:  cpu time      6.5252: real time      6.5304
 BZINTS: Fermi energy:    7.863130;  269.000000 electrons
         Band energy:-0.349160E+04;  BLOECHL correction:   -0.016815
       DOS:  cpu time      0.0457: real time      0.0457
    CHARGE:  cpu time      0.2581: real time      0.2583
    MIXING:  cpu time      0.0031: real time      0.0031
    --------------------------------------------
      LOOP:  cpu time     10.0576: real time     10.0657

 eigenvalue-minimisations  : 14856
 total energy-change (2. order) :-0.3393537E+01  (-0.6248629E+00)
 number of electron     269.0000003 magnetization       9.9410322
 augmentation part      139.4078051 magnetization       8.2489103

 Broyden mixing:
  rms(total) = 0.65272E+01    rms(broyden)= 0.65271E+01
  rms(prec ) = 0.13969E+02
  weight for this iteration     100.00

 eigenvalues of (default mixing * dielectric matrix)
  average eigenvalue GAMMA=   0.5441
  2.1840  0.7589  0.7589  0.5970  0.5970  0.3685  0.3685  0.2464  0.2464  0.1652
  0.1235  0.1150

 Free energy of the ion-electron system (eV)
  ---------------------------------------------------
  alpha Z        PSCENC =      2290.56772227
  Ewald energy   TEWEN  =    -30520.47084150
  -Hartree energ DENC   =     -9460.82603633
  -exchange      EXHF   =         0.00000000
  -V(xc)+E(xc)   XCENC  =      1371.76580924
  PAW double counting   =     37537.62983345   -38899.26036822
  entropy T*S    EENTRO =         0.00000000
  eigenvalues    EBANDS =     -3491.60103162
  atomic energy  EATOM  =     40966.07985633
  Solvation  Ediel_sol  =         0.00000000
  ---------------------------------------------------
  free energy    TOTEN  =      -206.11505638 eV

  energy without entropy =     -206.11505638  energy(sigma->0) =     -206.11505638


--------------------------------------------------------------------------------------------------------




--------------------------------------- Iteration      1(  18)  ---------------------------------------


    POTLOK:  cpu time      0.0083: real time      0.0091
    SETDIJ:  cpu time      3.2004: real time      3.2022
     EDDAV:  cpu time      6.9142: real time      6.9182
 BZINTS: Fermi energy:    8.038082;  269.000000 electrons
         Band energy:-0.347341E+04;  BLOECHL correction:   -0.008769
       DOS:  cpu time      0.0478: real time      0.0478
    CHARGE:  cpu time      0.2530: real time      0.2530
    MIXING:  cpu time      0.0032: real time      0.0032
    --------------------------------------------
      LOOP:  cpu time     10.4269: real time     10.4336

 eigenvalue-minimisations  : 16064
 total energy-change (2. order) : 0.9692779E+01  (-0.9185682E-01)
 number of electron     269.0000003 magnetization      10.1293342
 augmentation part      137.5042863 magnetization       8.2568793

 Broyden mixing:
  rms(total) = 0.36710E+01    rms(broyden)= 0.36710E+01
  rms(prec ) = 0.78494E+01
  weight for this iteration     100.00

 eigenvalues of (default mixing * dielectric matrix)
  average eigenvalue GAMMA=   0.5296
  2.1851  0.7874  0.7874  0.6236  0.6236  0.3682  0.3682  0.2490  0.2490  0.2379
  0.1652  0.1236  0.1159

 Free energy of the ion-electron system (eV)
  ---------------------------------------------------
  alpha Z        PSCENC =      2290.56772227
  Ewald energy   TEWEN  =    -30520.47084150
  -Hartree energ DENC   =     -9463.84818905
  -exchange      EXHF   =         0.00000000
  -V(xc)+E(xc)   XCENC  =      1371.80507195
  PAW double counting   =     37570.13065391   -38937.27609525
  entropy T*S    EENTRO =         0.00000000
[...]
  260          m_sumb_d                              0.000009                          2   4
  261        strnlr                                2.367122                            1   3
  262          rspher_all                            0.161031                          9   4
  263          phaser                                0.439907                        117   4
  264          rpro_isp                              1.760386                        117   4
  265            fftwav_mpi                            0.385283                    12402   5
  266              fftwav                                0.370147                  12402   6
  267                fft3d                                 0.082205                12402   7
  268            rpromu_acc                            0.761173                     3276   5
  269          m_sumb_d                              0.000014                          1   4
  270        fft3d_mpi                             0.003433                           22   3
  271          fftbrc_mpi                            0.002720                         22   4
  272            fftbas_plan_mpi                       0.002712                       22   5
  273              map_forward                           0.000988                     20   6
  274                map_gather                            0.000212                   10   7
  275                m_alltoallv_z                         0.000142                   10   7
  276                map_scatter                           0.000493                   10   7
  277              map_backward                          0.001093                     24   6
  278                map_gather                            0.000264                   12   7
  279                m_alltoallv_z                         0.000141                   12   7
  280                map_scatter                           0.000497                   12   7
  281        m_sumb_d                              0.000030                            5   3
  282        forhar                                0.001993                            2   3
  283          m_sumb_d                              0.000060                          2   4
  284        strehar                               0.001269                            1   3
  285          m_sumb_d                              0.000015                          1   4
  286        chggra                                0.000777                            1   3
  287          fft3d_mpi                             0.000460                          3   4
  288            fftbrc_mpi                            0.000361                        3   5
  289              fftbas_plan_mpi                       0.000361                      3   6
  290                map_forward                           0.000191                    4   7
  291                  map_gather                            0.000043                  2   8
  292                  m_alltoallv_z                         0.000027                  2   8
  293                  map_scatter                           0.000094                  2   8
  294                map_backward                          0.000086                    2   7
  295                  map_gather                            0.000020                  1   8
  296                  m_alltoallv_z                         0.000012                  1   8
  297                  map_scatter                           0.000038                  1   8
  298          m_sumb_d                              0.000007                          2   4
  299          pothar                                0.000080                          1   4
  300            m_sumb_d                              0.000010                        1   5
  301        brmix                                 0.008761                            1   3
  302          m_sumb_d                              0.000030                          6   4
  303          brpre                                 0.000030                          2   4
  304          setg0                                 0.000771                          1   4
  305          broyd                                 0.007020                          1   4
  306            m_sumb_d                              0.000230                       50   5
  307            brget                                 0.001597                      267   5
  308            brsav                                 0.000291                       48   5
  309        m_bcast_d                             0.000028                            2   3
  310      potlok                                0.029278                              2   2
  311        fft3d_mpi                             0.018912                           36   3
  312          fftbrc_mpi                            0.015738                         36   4
  313            fftbas_plan_mpi                       0.015720                       36   5
  314              map_forward                           0.004587                     40   6
  315                map_gather                            0.001540                   24   7
  316                m_alltoallv_z                         0.001477                   24   7
  317                map_scatter                           0.001381                   24   7
  318              map_backward                          0.003958                     32   6
  319                map_gather                            0.001270                   16   7
  320                m_alltoallv_z                         0.001340                   16   7
  321                map_scatter                           0.001162                   16   7
  322              dfftw_execute                         0.005368                     30   6
  323        m_sumb_d                              0.000027                            5   3
  324        pothar                                0.001185                            2   3
  325          m_sumb_d                              0.000144                          2   4
  326        m_bcast_d                             0.001883                            4   3
  327      potlok_metagga                        0.000000                              1   2
  328      set_dd_magatom                        0.000004                              1   2
  329      set_dd_paw                            3.096118                              1   2
  330        m_sumb_d                              0.942375                            7   3
  331      augmentation_charge                   0.110017                              1   2
  332        fft3d_mpi                             0.032322                            2   3
  333          fftbrc_mpi                            0.029055                          2   4
  334            fftbas_plan_mpi                       0.029052                        2   5
  335              dfftw_execute                         0.018864                      6   6
  336              map_backward                          0.009917                      4   6
  337                map_gather                            0.002447                    2   7
  338                m_alltoallv_z                         0.004744                    2   7
  339                map_scatter                           0.002718                    2   7
  340      fftwav_mpi                            3.203907                           4134   2
  341        fftwav                                3.198666                         4134   3
  342          fft3d                                 3.061480                       4134   4
  343      densta                                2.651593                              1   2
 
 Flat profile
 ============
 
             routine name                   CPU           calls
 ---------------------------------------------------------------
 set_dd_paw                            462.605838         216
 m_sumb_d                              382.614992     1576813
 eddav                                 250.561922         218
 lapack                                220.841987      517844
 raccmu_                               201.607188      517844
 redis_pw                              110.757960     2738734
 m_alltoall_d                           51.263926     7372044
 eccp                                   29.198117      300404
 fft3d                                  24.979104     2940209
 orth1                                  24.301956     1553714
 redis_proj                             23.088696     3447606
 phaser                                 21.517374        5837
 fftwav                                 18.264882     1930959
 setdij_                                17.439599         242
 augmentation_charge                    16.796621         215
 racc0mu_acc                            15.313082      517844
 w1_copy                                14.704877     3027750
 overl                                  14.219887     1718122
 hamiltmu                               13.587290      517844
 densta                                 12.948936         219
 soft_charge                            11.874947         214
 total_time                             11.674549           1
 init_acc                               11.557132           1
 rpromu_acc                             11.527722      369540
 m_bcast_z                              11.449451      523356
 setup_precond                          10.798397      300404
 dfftw_execute                          10.587728        5616
 ggemm                                  10.112957      670880
 m_bcast_d                               8.730836     1036125
 overl_mu                                8.013256      517844
 pw_charge                               5.346969      190815
 depsum                                  4.813798         214
 vhamil                                  4.586159     1009250
 kinhamil                                4.551654     1009250
 newband                                 4.343975      523512
 fftext_mpi                              4.248512     1009250
 apply_precond                           3.873429      708846
 m_alltoallv_z                           2.688445        8367
 fftwav_mpi                              2.587084     1930959
 acc_init_cublas                         2.419409           1
 fft3d_mpi                               2.310377     1016737
 map_scatter                             1.664901        8367
 set_charge                              1.440836         214
 map_gather                              1.398482        8367
 acc_init_cusolver                       0.996932           1
 broyd                                   0.938257         214
 rpro_isp                                0.857579         169
 potlok                                  0.757234         216
 elmin                                   0.413555           1
 fftbas_plan_mpi                         0.412836        7487
 w1_projall                              0.364510      364808
 brget                                   0.298396       49329
 sphpro_fast                             0.256650           2
 rspher_all                              0.239141          14
 acc_cufft_makeplan                      0.237332          19
 lincom                                  0.235245        5694
 brmix                                   0.225479         214
 setg0                                   0.170621         216
 truncate_high_frequency_w1              0.107023     1309654
 brsav                                   0.076976       13176
 proall                                  0.076210           1
 map_backward                            0.044644        7902
 map_forward                             0.040286        7072
 orthch                                  0.030715           1
 choleski                                0.024824          26
 force_and_stress                        0.019442           1
 pothar                                  0.017172         217
 fft_gq                                  0.009088         214
 stufak                                  0.008550           1
 brpre                                   0.006528         428
 strnlr                                  0.005783           1
 inisym                                  0.004564           1
 fftbrc_mpi                              0.004131        7487
 fornlr                                  0.001987           1
 forhar                                  0.001933           2
 strelo                                  0.001702           1
 strkin                                  0.001267           1
 strehar                                 0.001254           1
 forloc                                  0.001021           1
 set_dd_magatom                          0.000998         216
 vectorpot                               0.000923         215
 rsp                                     0.000737           1
 fewald                                  0.000345           1
 chggra                                  0.000230           1
 brgrid                                  0.000170           1
 fordep                                  0.000129           1
 posmap                                  0.000060           2
 rcp                                     0.000034           1
 crpa_reader                             0.000026           1
 potlok_metagga                          0.000014         215
 acc_cufft_makeplans                     0.000012           3
 rotate_active_occupied_orbital          0.000000           1
 redis_pw_over_bands                     0.000000           1
 ---------------------------------------------------------------
  summed up times     2086.107783079147     
 
 Accumulative profile
 ====================
 
             routine name                   CPU           calls
 ---------------------------------------------------------------
 total_time                           2086.107783           1
 elmin                                2038.777538           1
 eddav                                1286.170463         218
 set_dd_paw                            665.832847         216
 m_sumb_d                              382.614992     1576813
 hamiltmu                              259.338014      517844
 raccmu_                               224.933526      517844
 lapack                                220.841987      517844
 redis_pw                              136.324846     2738734
 newband                                67.735633      523512
 set_charge                             54.403778         214
 m_alltoall_d                           51.263926     7372044
 redis_proj                             48.785735     3447606
 fftwav_mpi                             38.714154     1930959
 fftwav                                 36.127071     1930959
 eccp                                   29.198117      300404
 setdij_                                27.635508         242
 fft3d_mpi                              26.268744     1016737
 fft3d                                  24.979104     2940209
 orth1                                  24.301956     1553714
 augmentation_charge                    24.006147         215
 soft_charge                            23.900967         214
 phaser                                 21.517374        5837
 fftbrc_mpi                             16.841453        7487
 fftbas_plan_mpi                        16.837321        7487
 kinhamil                               16.231040     1009250
 racc0mu_acc                            15.313082      517844
 w1_copy                                14.704877     3027750
 overl                                  14.219887     1718122
 densta                                 12.948936         219
 fftext_mpi                             11.679386     1009250
 init_acc                               11.557132           1
 rpromu_acc                             11.527722      369540
 m_bcast_z                              11.449451      523356
 w1_projall                             10.862640      364808
 setup_precond                          10.798397      300404
 dfftw_execute                          10.587728        5616
 ggemm                                  10.112957      670880
 force_and_stress                        9.495467           1
 m_bcast_d                               8.730836     1036125
 overl_mu                                8.013256      517844
 pw_charge                               5.346969      190815
 depsum                                  4.866293         214
 vhamil                                  4.586159     1009250
 apply_precond                           3.873429      708846
 map_backward                            2.937060        7902
 map_forward                             2.899698        7072
 m_alltoallv_z                           2.688445        8367
 rpro_isp                                2.435966         169
 acc_init_cublas                         2.419409           1
 strnlr                                  2.367122           1
 potlok                                  1.892344         216
 brmix                                   1.778382         214
 map_scatter                             1.664901        8367
 map_gather                              1.398482        8367
 broyd                                   1.363901         214
 acc_init_cusolver                       0.996932           1
 fornlr                                  0.785782           1
 fordep                                  0.686673           1
 orthch                                  0.465229           1
 fft_gq                                  0.364729         214
 brget                                   0.298396       49329
 sphpro_fast                             0.266446           2
 rspher_all                              0.239141          14
 acc_cufft_makeplans                     0.237344           3
 acc_cufft_makeplan                      0.237332          19
 lincom                                  0.235245        5694
 proall                                  0.215126           1
 setg0                                   0.170621         216
 truncate_high_frequency_w1              0.107023     1309654
 brsav                                   0.076976       13176
 choleski                                0.024824          26
 pothar                                  0.019173         217
 stufak                                  0.008550           1
 brpre                                   0.006528         428
 inisym                                  0.004624           1
 forhar                                  0.001993           2
 strelo                                  0.001711           1
 strkin                                  0.001288           1
 strehar                                 0.001269           1
 fewald                                  0.001210           1
 forloc                                  0.001057           1
 set_dd_magatom                          0.000998         216
 vectorpot                               0.000923         215
 chggra                                  0.000777           1
 rsp                                     0.000737           1
 brgrid                                  0.000170           1
 posmap                                  0.000060           2
 rcp                                     0.000034           1
 crpa_reader                             0.000026           1
 potlok_metagga                          0.000014         215
 rotate_active_occupied_orbital          0.000000           1
 redis_pw_over_bands                     0.000000           1
 ---------------------------------------------------------------
 
Profiling took   6.323899  3.071320  0.003208  0.003115 seconds
Profiling took   4.023866 seconds
