 vasp.6.3.2 27Jun22 (build Jul  3 2023 11:46:21) complex                         
 executed on    LinuxNV_CrayMPICH date 2024.04.20  17:29:46
 running on    4 total cores
 distrk:  each k-point on    4 cores,    1 groups
 distr:  one band on NCORE=   1 cores,    4 groups


--------------------------------------------------------------------------------------------------------


 INCAR:
   ADDGRID = True
   ALGO = Normal
   EDIFF = 0.0007
   ENCUT = 520.0
   IBRION = -1
   ICHARG = 0
   ISIF = 3
   ISMEAR = -5
   ISPIN = 2
   ISTART = 1
   KPOINT_BSE = -1 0 0 0
   LAECHG = True
   LASPH = True
   LCHARG = True
   LELF = True
   LORBIT = 11
   LREAL = Auto
   LVHAR = True
   LWAVE = False
   MAGMOM = 1*7.0 12*5.0 1*0.6
   NELM = 1000
   NSW = 0
   PREC = accurate
   SIGMA = 0.05

 POTCAR:    PAW_PBE Gd 23Dec2003                  
 POTCAR:    PAW_PBE V_pv 07Sep2000                
 POTCAR:    PAW_PBE Fe_pv 02Aug2007               
 POTCAR:    PAW_PBE N 08Apr2002                   
 POTCAR:    PAW_PBE Gd 23Dec2003                  
   SHA256 =  58854b40b4643190560b0e2b62d2ab46bea96585f82c6231a0f4f44b8c3188dc Gd/POTCAR             
   COPYR  = (c) Copyright 23Dec2003 Georg Kresse                                                    
   COPYR  = This file is part of the software VASP. Any use, copying, and all other rights are regul
   COPYR  = If you do not have a valid VASP license, you may not use, copy or distribute this file. 
   VRHFIN =Gd : [core=Xe4]                                                                          
   LEXCH  = PE                                                                                      
   EATOM  =  3047.6032 eV,  223.9925 Ry                                                             
                                                                                                    
   TITEL  = PAW_PBE Gd 23Dec2003                                                                    
   LULTRA =        F    use ultrasoft PP ?                                                          
   IUNSCR =        1    unscreen: 0-lin 1-nonlin 2-no                                               
   RPACOR =    2.300    partial core radius                                                         
   POMASS =  157.250; ZVAL   =   18.000    mass and valenz                                          
   RCORE  =    2.800    outmost cutoff radius                                                       
   RWIGS  =    2.800; RWIGS  =    1.482    wigner-seitz radius (au A)                               
   ENMAX  =  256.472; ENMIN  =  192.354 eV                                                          
   RCLOC  =    2.316    cutoff for local pot                                                        
   LCOR   =        T    correct aug charges                                                         
   LPAW   =        T    paw PP                                                                      
   EAUG   =  537.243                                                                                
   DEXC   =    0.000                                                                                
   RMAX   =    2.857    core radius for proj-oper                                                   
   RAUG   =    1.300    factor for augmentation sphere                                              
   RDEP   =    2.921    radius for radial grids                                                     
   RDEPT  =    2.247    core radius for aug-charge                                                  
                                                                                                    
   Atomic configuration                                                                             
   14 entries                                                                                       
     n  l   j            E        occ.                                                              
     1  0  0.50    -50087.2354   2.0000                                                             
     2  0  0.50     -8269.2182   2.0000                                                             
     2  1  1.50     -7357.3672   6.0000                                                             
     3  0  0.50     -1833.2681   2.0000                                                             
     3  1  1.50     -1550.9376   6.0000                                                             
     3  2  2.50     -1178.7204  10.0000                                                             
     4  0  0.50      -369.2978   2.0000                                                             
     4  1  1.50      -276.2601   6.0000                                                             
     4  2  2.50      -147.6611  10.0000                                                             
     5  0  0.50       -49.7260   2.0000                                                             
     6  0  0.50        -4.1254   2.0000                                                             
     5  1  1.50       -27.2538   6.0000                                                             
     5  2  2.50        -2.5337   1.0000                                                             
     4  3  2.50        -8.7140   7.0000                                                             
   Description                                                                                      
     l       E           TYP  RCUT    TYP  RCUT                                                     
     0    -49.7259557     23  2.400                                                                 
     0     -4.1254107     23  2.400                                                                 
     1    -27.2537518     23  2.400                                                                 
     1     20.4087390     23  2.400                                                                 
     2     -2.5337329     23  2.500                                                                 
     2     13.6058260     23  2.500                                                                 
     3     -8.7140389     23  2.800                                                                 
     3     -9.5240782     23  2.800                                                                 
  local pseudopotential read in
  partial core-charges read in
  partial kinetic energy density read in
  atomic valenz-charges read in
  non local Contribution for L=            0  read in
    real space projection operators read in
  non local Contribution for L=            0  read in
    real space projection operators read in
  non local Contribution for L=            1  read in
    real space projection operators read in
  non local Contribution for L=            1  read in
    real space projection operators read in
  non local Contribution for L=            2  read in
    real space projection operators read in
  non local Contribution for L=            2  read in
    real space projection operators read in
  non local Contribution for L=            3  read in
    real space projection operators read in
  non local Contribution for L=            3  read in
    real space projection operators read in
    PAW grid and wavefunctions read in
 
   number of l-projection  operators is LMAX  =            8
   number of lm-projection operators is LMMAX =           32
 
 POTCAR:    PAW_PBE V_pv 07Sep2000                
   SHA256 =  1175d3c8cb4ffd1d150a520fa74fae5c3ec72c0849b5615a94a5372dd2cf07f7 V_pv/POTCAR           
   COPYR  = (c) Copyright 07Sep2000 Georg Kresse                                                    
   COPYR  = This file is part of the software VASP. Any use, copying, and all other rights are regul
   COPYR  = If you do not have a valid VASP license, you may not use, copy or distribute this file. 
   VRHFIN =V: p6 d4 s1                                                                              
   LEXCH  = PE                                                                                      
   EATOM  =  1321.6206 eV,   97.1364 Ry                                                             
                                                                                                    
   TITEL  = PAW_PBE V_pv 07Sep2000                                                                  
   LULTRA =        F    use ultrasoft PP ?                                                          
   IUNSCR =        1    unscreen: 0-lin 1-nonlin 2-no                                               
   RPACOR =    1.700    partial core radius                                                         
   POMASS =   50.941; ZVAL   =   11.000    mass and valenz                                          
   RCORE  =    2.300    outmost cutoff radius                                                       
   RWIGS  =    2.300; RWIGS  =    1.217    wigner-seitz radius (au A)                               
   ENMAX  =  263.673; ENMIN  =  197.755 eV                                                          
   RCLOC  =    1.779    cutoff for local pot                                                        
   LCOR   =        T    correct aug charges                                                         
   LPAW   =        T    paw PP                                                                      
   EAUG   =  598.473                                                                                
   DEXC   =    0.000                                                                                
   RMAX   =    2.359    core radius for proj-oper                                                   
   RAUG   =    1.300    factor for augmentation sphere                                              
   RDEP   =    2.430    radius for radial grids                                                     
   RDEPT  =    1.700    core radius for aug-charge                                                  
                                                                                                    
   Atomic configuration                                                                             
    8 entries                                                                                       
     n  l   j            E        occ.                                                              
     1  0  0.50     -5360.7193   2.0000                                                             
     2  0  0.50      -598.4546   2.0000                                                             
     2  1  1.50      -499.0155   6.0000                                                             
     3  0  0.50       -66.5711   2.0000                                                             
     3  1  1.50       -40.5282   6.0000                                                             
     3  2  2.50        -2.4291   4.0000                                                             
     4  0  0.50        -3.8743   1.0000                                                             
     4  3  2.50        -1.3606   0.0000                                                             
   Description                                                                                      
     l       E           TYP  RCUT    TYP  RCUT                                                     
     1    -40.5282431     23  2.000                                                                 
     1      5.4423304     23  2.000                                                                 
     2     -2.4290905     23  2.300                                                                 
     2     -1.0472488     23  2.300                                                                 
     0     -3.8742754     23  2.300                                                                 
     0     27.2116520     23  2.300                                                                 
  local pseudopotential read in
  partial core-charges read in
  partial kinetic energy density read in
  atomic valenz-charges read in
  non local Contribution for L=            1  read in
    real space projection operators read in
  non local Contribution for L=            1  read in
    real space projection operators read in
  non local Contribution for L=            2  read in
    real space projection operators read in
  non local Contribution for L=            2  read in
    real space projection operators read in
  non local Contribution for L=            0  read in
    real space projection operators read in
  non local Contribution for L=            0  read in
    real space projection operators read in
    PAW grid and wavefunctions read in
 
   number of l-projection  operators is LMAX  =            6
   number of lm-projection operators is LMMAX =           18
 
 POTCAR:    PAW_PBE Fe_pv 02Aug2007               
   SHA256 =  5d22e414b1f82158bf2c7ecb8b97b28fd0923e48cadc1c3bf74d524558f5dd32 Fe_pv/POTCAR          
   COPYR  = (c) Copyright 02Aug2007 Georg Kresse                                                    
   COPYR  = This file is part of the software VASP. Any use, copying, and all other rights are regul
   COPYR  = If you do not have a valid VASP license, you may not use, copy or distribute this file. 
   VRHFIN =Fe:  3pd7s1                                                                              
   LEXCH  = PE                                                                                      
   EATOM  =  2457.4239 eV,  180.6156 Ry                                                             
                                                                                                    
   TITEL  = PAW_PBE Fe_pv 02Aug2007                                                                 
   LULTRA =        F    use ultrasoft PP ?                                                          
   IUNSCR =        1    unscreen: 0-lin 1-nonlin 2-no                                               
   RPACOR =    1.750    partial core radius                                                         
   POMASS =   55.847; ZVAL   =   14.000    mass and valenz                                          
   RCORE  =    2.200    outmost cutoff radius                                                       
   RWIGS  =    2.200; RWIGS  =    1.164    wigner-seitz radius (au A)                               
   ENMAX  =  293.238; ENMIN  =  219.928 eV                                                          
   ICORE  =        3    local potential                                                             
   LCOR   =        T    correct aug charges                                                         
   LPAW   =        T    paw PP                                                                      
   EAUG   =  578.342                                                                                
   DEXC   =    0.000                                                                                
   RMAX   =    2.249    core radius for proj-oper                                                   
   RAUG   =    1.300    factor for augmentation sphere                                              
   RDEP   =    2.296    radius for radial grids                                                     
   RDEPT  =    1.766    core radius for aug-charge                                                  
                                                                                                    
   Atomic configuration                                                                             
    8 entries                                                                                       
     n  l   j            E        occ.                                                              
     1  0  0.50     -6993.8440   2.0000                                                             
     2  0  0.50      -814.6047   2.0000                                                             
     2  1  1.50      -693.3689   6.0000                                                             
     3  0  0.50       -89.4732   2.0000                                                             
     3  1  1.50       -55.6373   6.0000                                                             
     3  2  2.50        -3.8151   7.0000                                                             
     4  0  0.50        -4.2551   1.0000                                                             
     4  3  2.50        -1.3606   0.0000                                                             
   Description                                                                                      
     l       E           TYP  RCUT    TYP  RCUT                                                     
     1    -55.6372668     23  2.000                                                                 
     1     -5.4423304     23  2.000                                                                 
     2     -3.8151096     23  2.200                                                                 
     2     -5.1756922     23  2.200                                                                 
     0     -4.2550951     23  2.200                                                                 
     0     27.2116520     23  2.200                                                                 
     3     -1.3605826     23  2.200                                                                 
  local pseudopotential read in
  partial core-charges read in
  partial kinetic energy density read in
  atomic valenz-charges read in
  non local Contribution for L=            1  read in
    real space projection operators read in
  non local Contribution for L=            1  read in
    real space projection operators read in
  non local Contribution for L=            2  read in
    real space projection operators read in
  non local Contribution for L=            2  read in
    real space projection operators read in
  non local Contribution for L=            0  read in
    real space projection operators read in
  non local Contribution for L=            0  read in
    real space projection operators read in
    PAW grid and wavefunctions read in
 
   number of l-projection  operators is LMAX  =            6
   number of lm-projection operators is LMMAX =           18
 
 POTCAR:    PAW_PBE N 08Apr2002                   
   SHA256 =  e053789ff3a61a86a1b75d8a110fcc91f86041011e7b0817c7c99e4e8a6349d7 N/POTCAR              
   COPYR  = (c) Copyright 08Apr2002 Georg Kresse                                                    
   COPYR  = This file is part of the software VASP. Any use, copying, and all other rights are regul
   COPYR  = If you do not have a valid VASP license, you may not use, copy or distribute this file. 
   VRHFIN =N: s2p3                                                                                  
   LEXCH  = PE                                                                                      
   EATOM  =   264.5486 eV,   19.4438 Ry                                                             
                                                                                                    
   TITEL  = PAW_PBE N 08Apr2002                                                                     
   LULTRA =        F    use ultrasoft PP ?                                                          
   IUNSCR =        1    unscreen: 0-lin 1-nonlin 2-no                                               
   RPACOR =    1.200    partial core radius                                                         
   POMASS =   14.001; ZVAL   =    5.000    mass and valenz                                          
   RCORE  =    1.500    outmost cutoff radius                                                       
   RWIGS  =    1.400; RWIGS  =    0.741    wigner-seitz radius (au A)                               
   ENMAX  =  400.000; ENMIN  =  300.000 eV                                                          
   ICORE  =        2    local potential                                                             
   LCOR   =        T    correct aug charges                                                         
   LPAW   =        T    paw PP                                                                      
   EAUG   =  627.112                                                                                
   DEXC   =    0.000                                                                                
   RMAX   =    1.529    core radius for proj-oper                                                   
   RAUG   =    1.300    factor for augmentation sphere                                              
   RDEP   =    1.514    radius for radial grids                                                     
   RDEPT  =    1.338    core radius for aug-charge                                                  
                                                                                                    
   Atomic configuration                                                                             
    4 entries                                                                                       
     n  l   j            E        occ.                                                              
     1  0  0.50      -384.7179   2.0000                                                             
     2  0  0.50       -18.5828   2.0000                                                             
     2  1  0.50        -7.0898   3.0000                                                             
     3  2  1.50        -6.8029   0.0000                                                             
   Description                                                                                      
     l       E           TYP  RCUT    TYP  RCUT                                                     
     0    -18.5828119     23  1.200                                                                 
     0    -13.5018863     23  1.200                                                                 
     1     -7.0897853     23  1.500                                                                 
     1      9.5240782     23  1.500                                                                 
     2     -6.8029130      7  1.500                                                                 
  local pseudopotential read in
  partial core-charges read in
  partial kinetic energy density read in
  atomic valenz-charges read in
  non local Contribution for L=            0  read in
    real space projection operators read in
  non local Contribution for L=            0  read in
    real space projection operators read in
  non local Contribution for L=            1  read in
    real space projection operators read in
  non local Contribution for L=            1  read in
    real space projection operators read in
    PAW grid and wavefunctions read in
 
   number of l-projection  operators is LMAX  =            4
   number of lm-projection operators is LMMAX =            8
 
 Optimization of the real space projectors (new method)

 maximal supplied QI-value         = 13.42
 optimisation between [QCUT,QGAM] = [ 11.67, 23.35] = [ 38.16,152.62] Ry 
 Optimized for a Real-space Cutoff    1.63 Angstroem

   l    n(q)    QCUT    max X(q) W(low)/X(q) W(high)/X(q)  e(spline) 
   0     11    11.673    10.501    0.14E-04    0.17E-05    0.21E-07
   0     11    11.673     9.148    0.21E-04    0.32E-05    0.45E-07
   1     11    11.673     4.035    0.33E-05    0.11E-04    0.84E-07
   1     11    11.673     4.388    0.11E-04    0.47E-04    0.34E-06
   2     10    11.673    20.656    0.12E-04    0.28E-04    0.54E-06
   2     10    11.673    12.651    0.11E-04    0.26E-04    0.51E-06
   3     10    11.673    61.921    0.19E-03    0.22E-03    0.23E-06
   3     10    11.673    48.328    0.20E-03    0.23E-03    0.23E-06
 Optimization of the real space projectors (new method)

 maximal supplied QI-value         = 16.25
 optimisation between [QCUT,QGAM] = [ 11.54, 23.24] = [ 37.28,151.24] Ry 
 Optimized for a Real-space Cutoff    1.53 Angstroem

   l    n(q)    QCUT    max X(q) W(low)/X(q) W(high)/X(q)  e(spline) 
   1     10    11.539     3.206    0.43E-05    0.46E-05    0.52E-07
   1     10    11.539     4.597    0.39E-04    0.25E-04    0.17E-06
   2     10    11.539    89.000    0.10E-03    0.13E-03    0.24E-06
   2     10    11.539    82.410    0.10E-03    0.13E-03    0.23E-06
   0     11    11.539    36.565    0.42E-04    0.19E-04    0.30E-06
   0     11    11.539    13.729    0.20E-04    0.13E-04    0.22E-06
 Optimization of the real space projectors (new method)

 maximal supplied QI-value         = 17.01
 optimisation between [QCUT,QGAM] = [ 11.57, 23.30] = [ 37.45,152.03] Ry 
 Optimized for a Real-space Cutoff    1.45 Angstroem

   l    n(q)    QCUT    max X(q) W(low)/X(q) W(high)/X(q)  e(spline) 
   1     10    11.565     4.267    0.91E-04    0.15E-03    0.13E-06
   1     10    11.565     5.750    0.14E-03    0.22E-03    0.20E-06
   2      9    11.565    53.656    0.13E-03    0.57E-04    0.16E-06
   2      9    11.565    49.521    0.13E-03    0.59E-04    0.16E-06
   0     10    11.565    31.246    0.61E-04    0.74E-05    0.89E-07
   0     10    11.565    12.201    0.44E-04    0.68E-05    0.74E-07
 Optimization of the real space projectors (new method)

 maximal supplied QI-value         = 25.13
 optimisation between [QCUT,QGAM] = [ 11.56, 23.12] = [ 37.43,149.72] Ry 
 Optimized for a Real-space Cutoff    1.40 Angstroem

   l    n(q)    QCUT    max X(q) W(low)/X(q) W(high)/X(q)  e(spline) 
   0     10    11.561    79.467    0.46E-04    0.78E-04    0.61E-06
   0     10    11.561    66.151    0.45E-04    0.77E-04    0.61E-06
   1      9    11.561    18.886    0.22E-03    0.13E-03    0.12E-05
   1      9    11.561    13.488    0.23E-03    0.13E-03    0.12E-05
  PAW_PBE Gd 23Dec2003                  :
 energy of atom  1       EATOM=-3047.6032
 kinetic energy error for atom=    0.0019 (will be added to EATOM!!)
  PAW_PBE V_pv 07Sep2000                :
 energy of atom  2       EATOM=-1321.6206
 kinetic energy error for atom=    0.0054 (will be added to EATOM!!)
  PAW_PBE Fe_pv 02Aug2007               :
 energy of atom  3       EATOM=-2457.4239
 kinetic energy error for atom=    0.0062 (will be added to EATOM!!)
  PAW_PBE N 08Apr2002                   :
 energy of atom  4       EATOM= -264.5486
 kinetic energy error for atom=    0.0125 (will be added to EATOM!!)
 
 
 POSCAR: Gd1 V2 Fe10 N1
  positions in direct lattice
  No initial velocities read in
 exchange correlation table for  LEXCH =        8
   RHO(1)=    0.500       N(1)  =     2000
   RHO(2)=  100.500       N(2)  =     4000

 VTST: version 4.2, (08/11/21)

 CHAIN: initializing optimizer
 
 OPT: Using VASP Dynamics algorithm
 CHAIN: Read ICHAIN             0
 
 POSCAR: Gd1 V2 Fe10 N1
  positions in direct lattice
  No initial velocities read in
 


--------------------------------------------------------------------------------------------------------


 ion  position               nearest neighbor table
   1  0.000  0.000  0.000-  14 2.38  14 2.38   5 3.06   4 3.06   4 3.06   5 3.06   7 3.06   6 3.06
                             6 3.06   7 3.06  12 3.07  13 3.07   2 3.08   3 3.08
   2  0.359  0.359  0.000-   3 2.42   8 2.61  10 2.61  11 2.61   9 2.61   5 2.64   4 2.64   7 2.64
                             7 2.64   1 3.08
   3  0.641  0.641  0.000-   2 2.42   8 2.61   9 2.61  10 2.61  11 2.61   5 2.64   4 2.64   6 2.64
                             6 2.64   1 3.08
   4  0.775  0.500  0.275-  14 1.92   8 2.46   9 2.46  10 2.46  11 2.46   3 2.64   2 2.64  13 2.64
                            13 2.64   7 2.71   6 2.71   1 3.06   1 3.06
   5  0.225  0.500  0.725-  14 1.92  11 2.46  10 2.46   9 2.46   8 2.46   3 2.64   2 2.64  12 2.64
                            12 2.64   7 2.71   6 2.71   1 3.06   1 3.06
   6  0.776  0.276  0.500-  14 1.92   9 2.45  11 2.45   8 2.45  10 2.45   3 2.64   3 2.64  13 2.65
                            12 2.65   4 2.71   5 2.71   1 3.06   1 3.06
   7  0.224  0.724  0.500-  14 1.92  10 2.45  11 2.45   9 2.45   8 2.45   2 2.64   2 2.64  13 2.65
                            12 2.65   4 2.71   5 2.71   1 3.06   1 3.06
   8  0.000  0.500  0.000-   9 2.38   9 2.38   6 2.45   7 2.45   4 2.46   5 2.46   2 2.61   3 2.61
                            13 2.63  12 2.63
   9  0.000  0.000  0.500-   8 2.38   8 2.38   6 2.45   7 2.45   4 2.46   5 2.46   2 2.61   3 2.61
                            13 2.63  12 2.63
  10  0.500  0.000  0.000-  11 2.38  11 2.38   7 2.45   6 2.45   5 2.46   4 2.46   2 2.61   3 2.61
                            13 2.63  12 2.63
  11  0.500  0.500  0.500-  10 2.38  10 2.38   6 2.45   7 2.45   5 2.46   4 2.46   2 2.61   3 2.61
                            12 2.63  13 2.63
  12  0.360  0.000  0.360-  13 2.39  10 2.63  11 2.63   9 2.63   8 2.63   5 2.64   5 2.64   6 2.65
                             7 2.65   1 3.07
  13  0.640  0.000  0.640-  12 2.39   9 2.63  10 2.63   8 2.63  11 2.63   4 2.64   4 2.64   6 2.65
                             7 2.65   1 3.07
  14  0.000  0.500  0.500-   4 1.92   5 1.92   6 1.92   7 1.92   1 2.38   1 2.38
 
  LATTYP: Found a body centered orthorhombic cell.
 ALAT       =     4.7567020000
 B/A-ratio  =     1.7925768736
 C/A-ratio  =     1.8034364986
  
  Lattice vectors:
  
 A1 = (  -2.3783510000,   4.2633770000,   4.2892050000)
 A2 = (   2.3783510000,  -4.2633770000,   4.2892050000)
 A3 = (   2.3783510000,   4.2633770000,  -4.2892050000)


Analysis of symmetry for initial positions (statically):
=====================================================================
 Subroutine PRICEL returns:
 Original cell was already a primitive cell.
 

 Routine SETGRP: Setting up the symmetry group for a 
 body centered orthorhombic supercell.


 Subroutine GETGRP returns: Found  8 space group operations
 (whereof  8 operations were pure point group operations)
 out of a pool of  8 trial point group operations.


The static configuration has the point symmetry D_2h.


Analysis of symmetry for dynamics (positions and initial velocities):
=====================================================================
 Subroutine PRICEL returns:
 Original cell was already a primitive cell.
 

 Routine SETGRP: Setting up the symmetry group for a 
 body centered orthorhombic supercell.


 Subroutine GETGRP returns: Found  8 space group operations
 (whereof  8 operations were pure point group operations)
 out of a pool of  8 trial point group operations.


The dynamic configuration has the point symmetry D_2h.


Analysis of structural, dynamic, and magnetic symmetry:
=====================================================================
 Subroutine PRICEL returns:
 Original cell was already a primitive cell.
 

 Routine SETGRP: Setting up the symmetry group for a 
 body centered orthorhombic supercell.


 Subroutine GETGRP returns: Found  8 space group operations
 (whereof  8 operations were pure point group operations)
 out of a pool of  8 trial point group operations.


The overall configuration has the point symmetry D_2h.


 Subroutine INISYM returns: Found  8 space group operations
 (whereof  8 operations are pure point group operations),
 and found     1 'primitive' translations


----------------------------------------------------------------------------------------

                                     Primitive cell                                     

  volume of cell :     173.9668

  direct lattice vectors                    reciprocal lattice vectors
    -2.378351000  4.263377000  4.289205000     0.000000000  0.117277923  0.116571719
     2.378351000 -4.263377000  4.289205000     0.210229693 -0.000000000  0.116571719
     2.378351000  4.263377000 -4.289205000     0.210229693  0.117277923  0.000000000

  length of vectors
     6.498478011  6.498478011  6.498478011     0.165357422  0.240386126  0.240729381

  position of ions in fractional coordinates (direct lattice)
     0.000000000  0.000000000  0.000000000
     0.358802000  0.358802000  0.000000000
     0.641198000  0.641198000  0.000000000
     0.775074000  0.500000000  0.275074000
     0.224926000  0.500000000  0.724926000
     0.776112000  0.276112000  0.500000000
     0.223888000  0.723888000  0.500000000
     1.000000000  0.500000000  1.000000000
     0.000000000  1.000000000  0.500000000
     0.500000000  0.000000000  0.000000000
     0.500000000  0.500000000  0.500000000
     0.359954000  0.000000000  0.359954000
     0.640046000  0.000000000  0.640046000
     0.000000000  0.500000000  0.500000000

  ion indices of the primitive-cell ions
   primitive index   ion index
                 1           1
                 2           2
                 3           3
                 4           4
                 5           5
                 6           6
                 7           7
                 8           8
                 9           9
                10          10
                11          11
                12          12
                13          13
                14          14

----------------------------------------------------------------------------------------

 
 
 KPOINTS: Kpoints from vasprun.xml                

Automatic generation of k-mesh.
 Grid dimensions read from file:
 generate k-points for:    5    5    5

 Generating k-lattice:

  Cartesian coordinates                     Fractional coordinates (reciprocal lattice)
     0.000000000  0.023455585  0.023314344     0.200000000 -0.000000000  0.000000000
     0.042045939 -0.000000000  0.023314344     0.000000000  0.200000000 -0.000000000
     0.042045939  0.023455585  0.000000000     0.000000000 -0.000000000  0.200000000

  Length of vectors
     0.033071484  0.048077225  0.048145876

  Shift w.r.t. Gamma in fractional coordinates (k-lattice)
     0.000000000  0.000000000  0.000000000

 TETIRR: Found    307 inequivalent tetrahedra from      750
 
 Subroutine IBZKPT returns following result:
 ===========================================
 
 Found     27 irreducible k-points:
 
 Following reciprocal coordinates:
            Coordinates               Weight
  0.000000  0.000000  0.000000      1.000000
  0.200000  0.000000  0.000000      4.000000
  0.400000  0.000000  0.000000      4.000000
  0.000000  0.200000  0.000000      4.000000
  0.200000  0.200000  0.000000      8.000000
  0.400000  0.200000  0.000000      8.000000
 -0.400000  0.200000  0.000000      8.000000
 -0.200000  0.200000  0.000000      4.000000
  0.000000  0.400000  0.000000      4.000000
  0.200000  0.400000  0.000000      8.000000
  0.400000  0.400000  0.000000      8.000000
 -0.400000  0.400000  0.000000      4.000000
 -0.200000  0.400000  0.000000      8.000000
  0.200000  0.200000  0.200000      8.000000
 -0.200000  0.200000  0.200000      2.000000
 -0.400000  0.400000  0.200000      4.000000
 -0.200000  0.400000  0.200000      4.000000
  0.400000 -0.400000  0.200000      4.000000
 -0.400000 -0.400000  0.200000      8.000000
 -0.200000 -0.400000  0.200000      4.000000
  0.200000 -0.200000  0.200000      2.000000
  0.400000 -0.200000  0.200000      4.000000
 -0.400000 -0.200000  0.200000      4.000000
 -0.200000 -0.200000  0.200000      2.000000
 -0.400000  0.400000  0.400000      2.000000
  0.400000 -0.400000  0.400000      2.000000
 -0.400000 -0.400000  0.400000      2.000000
 
 Following cartesian coordinates:
            Coordinates               Weight
  0.000000  0.000000  0.000000      1.000000
  0.000000  0.023456  0.023314      4.000000
  0.000000  0.046911  0.046629      4.000000
  0.042046  0.000000  0.023314      4.000000
  0.042046  0.023456  0.046629      8.000000
  0.042046  0.046911  0.069943      8.000000
  0.042046 -0.046911 -0.023314      8.000000
  0.042046 -0.023456  0.000000      4.000000
  0.084092  0.000000  0.046629      4.000000
  0.084092  0.023456  0.069943      8.000000
  0.084092  0.046911  0.093257      8.000000
  0.084092 -0.046911  0.000000      4.000000
  0.084092 -0.023456  0.023314      8.000000
  0.084092  0.046911  0.046629      8.000000
  0.084092  0.000000  0.000000      2.000000
  0.126138 -0.023456  0.000000      4.000000
  0.126138  0.000000  0.023314      4.000000
 -0.042046  0.070367  0.000000      4.000000
 -0.042046 -0.023456 -0.093257      8.000000
 -0.042046  0.000000 -0.069943      4.000000
  0.000000  0.046911  0.000000      2.000000
  0.000000  0.070367  0.023314      4.000000
  0.000000 -0.023456 -0.069943      4.000000
  0.000000  0.000000 -0.046629      2.000000
  0.168184  0.000000  0.000000      2.000000
  0.000000  0.093822  0.000000      2.000000
  0.000000  0.000000 -0.093257      2.000000
 


--------------------------------------------------------------------------------------------------------




 Dimension of arrays:
   k-points           NKPTS =     27   k-points in BZ     NKDIM =     27   number of bands    NBANDS=    148
   number of dos      NEDOS =    301   number of ions     NIONS =     14
   non local maximal  LDIM  =      8   non local SUM 2l+1 LMDIM =     32
   total plane-waves  NPLWV = 110592
   max r-space proj   IRMAX =  11523   max aug-charges    IRDMAX= 301014
   dimension x,y,z NGX =    48 NGY =   48 NGZ =   48
   dimension x,y,z NGXF=    96 NGYF=   96 NGZF=   96
   support grid    NGXF=   192 NGYF=  192 NGZF=  192
   ions per type =               1   2  10   1
   NGX,Y,Z   is equivalent  to a cutoff of  12.28, 12.28, 12.28 a.u.
   NGXF,Y,Z  is equivalent  to a cutoff of  24.56, 24.56, 24.56 a.u.

 SYSTEM =  unknown system                          
 POSCAR =  Gd1 V2 Fe10 N1                          

 Startparameter for this run:
   NWRITE =      2    write-flag & timer
   PREC   = accura    normal or accurate (medium, high low for compatibility)
   ISTART =      0    job   : 0-new  1-cont  2-samecut
   ICHARG =      2    charge: 1-file 2-atom 10-const
   ISPIN  =      2    spin polarized calculation?
   LNONCOLLINEAR =      F non collinear calculations
   LSORBIT =      F    spin-orbit coupling
   INIWAV =      1    electr: 0-lowe 1-rand  2-diag
   LASPH  =      T    aspherical Exc in radial PAW
 Electronic Relaxation 1
   ENCUT  =  520.0 eV  38.22 Ry    6.18 a.u.  12.08 12.08 12.08*2*pi/ulx,y,z
   ENINI  =  520.0     initial cutoff
   ENAUG  =  627.1 eV  augmentation charge cutoff
   NELM   =   1000;   NELMIN=  2; NELMDL=  0     # of ELM steps 
   EDIFF  = 0.7E-03   stopping-criterion for ELM
   LREAL  =      T    real-space projection
   NLSPLINE    = F    spline interpolate recip. space projectors
   LCOMPAT=      F    compatible to vasp.4.4
   GGA_COMPAT  = T    GGA compatible to vasp.4.4-vasp.4.6
   LMAXPAW     = -100 max onsite density
   LMAXMIX     =    2 max onsite mixed and CHGCAR
   VOSKOWN=      0    Vosko Wilk Nusair interpolation
   ROPT   =   -0.00025  -0.00025  -0.00025  -0.00025
 Ionic relaxation
   EDIFFG = 0.7E-02   stopping-criterion for IOM
   NSW    =      0    number of steps for IOM
   NBLOCK =      1;   KBLOCK =      1    inner block; outer block 
   IBRION =     -1    ionic relax: 0-MD 1-quasi-New 2-CG
   NFREE  =      0    steps in history (QN), initial steepest desc. (CG)
   ISIF   =      3    stress and relaxation
   IWAVPR =     10    prediction:  0-non 1-charg 2-wave 3-comb
   ISYM   =      2    0-nonsym 1-usesym 2-fastsym
   LCORR  =      T    Harris-Foulkes like correction to forces

   POTIM  = 0.5000    time-step for ionic-motion
   TEIN   =    0.0    initial temperature
   TEBEG  =    0.0;   TEEND  =   0.0 temperature during run
   SMASS  =  -3.00    Nose mass-parameter (am)
   estimated Nose-frequenzy (Omega)   =  0.10E-29 period in steps = 0.13E+47 mass=  -0.965E-27a.u.
   SCALEE = 1.0000    scale energy and forces
   NPACO  =    256;   APACO  = 10.0  distance and # of slots for P.C.
   PSTRESS=    0.0 pullay stress

  Mass of Ions in am
   POMASS = 157.25 50.94 55.85 14.00
  Ionic Valenz
   ZVAL   =  18.00 11.00 14.00  5.00
  Atomic Wigner-Seitz radii
   RWIGS  =  -1.00 -1.00 -1.00 -1.00
  virtual crystal weights 
   VCA    =   1.00  1.00  1.00  1.00
   NELECT =     185.0000    total number of electrons
   NUPDOWN=      -1.0000    fix difference up-down

 DOS related values:
   EMIN   =  10.00;   EMAX   =-10.00  energy-range for DOS
   EFERMI =   0.00
   ISMEAR =    -5;   SIGMA  =   0.05  broadening in eV -4-tet -1-fermi 0-gaus

 Electronic relaxation 2 (details)
   IALGO  =     38    algorithm
   LDIAG  =      T    sub-space diagonalisation (order eigenvalues)
   LSUBROT=      F    optimize rotation matrix (better conditioning)
   TURBO    =      0    0=normal 1=particle mesh
   IRESTART =      0    0=no restart 2=restart with 2 vectors
   NREBOOT  =      0    no. of reboots
   NMIN     =      0    reboot dimension
   EREF     =   0.00    reference energy to select bands
   IMIX   =      4    mixing-type and parameters
     AMIX     =   0.40;   BMIX     =  1.00
     AMIX_MAG =   1.60;   BMIX_MAG =  1.00
     AMIN     =   0.10
     WC   =   100.;   INIMIX=   1;  MIXPRE=   1;  MAXMIX= -45

 Intra band minimization:
   WEIMIN = 0.0000     energy-eigenvalue tresh-hold
   EBREAK =  0.12E-05  absolut break condition
   DEPER  =   0.30     relativ break condition  

   TIME   =   0.40     timestep for ELM

  volume/ion in A,a.u.               =      12.43        83.86
  Fermi-wavevector in a.u.,A,eV,Ry     =   1.671001  3.157733 37.990768  2.792243
  Thomas-Fermi vector in A             =   2.756400
 
 Write flags
   LWAVE        =      F    write WAVECAR
   LDOWNSAMPLE  =      F    k-point downsampling of WAVECAR
   LCHARG       =      T    write CHGCAR
   LVTOT        =      F    write LOCPOT, total local potential
   LVHAR        =      T    write LOCPOT, Hartree potential only
   LELF         =      T    write electronic localiz. function (ELF)
   LORBIT       =     11    0 simple, 1 ext, 2 COOP (PROOUT), +10 PAW based schemes


 Dipole corrections
   LMONO  =      F    monopole corrections only (constant potential shift)
   LDIPOL =      F    correct potential (dipole corrections)
   IDIPOL =      0    1-x, 2-y, 3-z, 4-all directions 
   EPSILON=  1.0000000 bulk dielectric constant

 Exchange correlation treatment:
   GGA     =    --    GGA type
   LEXCH   =     8    internal setting for exchange type
   LIBXC   =     F    Libxc                    
   VOSKOWN =     0    Vosko Wilk Nusair interpolation
   LHFCALC =     F    Hartree Fock is set to
   LHFONE  =     F    Hartree Fock one center treatment
   AEXX    =    0.0000 exact exchange contribution

 Linear response parameters
   LEPSILON=     F    determine dielectric tensor
   LRPA    =     F    only Hartree local field effects (RPA)
   LNABLA  =     F    use nabla operator in PAW spheres
   LVEL    =     F    velocity operator in full k-point grid
   CSHIFT  =0.1000    complex shift for real part using Kramers Kronig
   OMEGAMAX=  -1.0    maximum frequency
   DEG_THRESHOLD= 0.2000000E-02 threshold for treating states as degnerate
   RTIME   =   -0.100 relaxation time in fs
  (WPLASMAI=    0.000 imaginary part of plasma frequency in eV, 0.658/RTIME)
   DFIELD  = 0.0000000 0.0000000 0.0000000 field for delta impulse in time
 
  Optional k-point grid parameters
   LKPOINTS_OPT  =     F    use optional k-point grid
   KPOINTS_OPT_MODE=     1    mode for optional k-point grid
 
 Orbital magnetization related:
   ORBITALMAG=     F  switch on orbital magnetization
   LCHIMAG   =     F  perturbation theory with respect to B field
   DQ        =  0.001000  dq finite difference perturbation B field
   LLRAUG    =     F  two centre corrections for induced B field



--------------------------------------------------------------------------------------------------------


 Static calculation
 charge density and potential will be updated during run
 spin polarized calculation
 Variant of blocked Davidson
 Davidson routine will perform the subspace rotation
 perform sub-space diagonalisation
    after iterative eigenvector-optimisation
 modified Broyden-mixing scheme, WC =      100.0
 initial mixing is a Kerker type mixing with AMIX =  0.4000 and BMIX =      1.0000
 Hartree-type preconditioning will be used
 using additional bands            55
 real space projection scheme for non local part
 use partial core corrections
 calculate Harris-corrections to forces 
   (improved forces if not selfconsistent)
 use gradient corrections 
 use of overlap-Matrix (Vanderbilt PP)
 Fermi weights with tetrahedron method with Bloechl corrections


--------------------------------------------------------------------------------------------------------


  energy-cutoff  :      520.00
  volume of cell :      173.97
      direct lattice vectors                 reciprocal lattice vectors
    -2.378351000  4.263377000  4.289205000     0.000000000  0.117277923  0.116571719
     2.378351000 -4.263377000  4.289205000     0.210229693 -0.000000000  0.116571719
     2.378351000  4.263377000 -4.289205000     0.210229693  0.117277923  0.000000000

  length of vectors
     6.498478011  6.498478011  6.498478011     0.165357422  0.240386126  0.240729381


 
 k-points in units of 2pi/SCALE and weight: Kpoints from vasprun.xml                
   0.00000000  0.00000000  0.00000000       0.008
   0.00000000  0.02345558  0.02331434       0.032
   0.00000000  0.04691117  0.04662869       0.032
   0.04204594  0.00000000  0.02331434       0.032
   0.04204594  0.02345558  0.04662869       0.064
   0.04204594  0.04691117  0.06994303       0.064
   0.04204594 -0.04691117 -0.02331434       0.064
   0.04204594 -0.02345558  0.00000000       0.032
   0.08409188  0.00000000  0.04662869       0.032
   0.08409188  0.02345558  0.06994303       0.064
   0.08409188  0.04691117  0.09325738       0.064
   0.08409188 -0.04691117  0.00000000       0.032
   0.08409188 -0.02345558  0.02331434       0.064
   0.08409188  0.04691117  0.04662869       0.064
   0.08409188  0.00000000  0.00000000       0.016
   0.12613782 -0.02345558  0.00000000       0.032
   0.12613782  0.00000000  0.02331434       0.032
  -0.04204594  0.07036675  0.00000000       0.032
  -0.04204594 -0.02345558 -0.09325738       0.064
  -0.04204594  0.00000000 -0.06994303       0.032
   0.00000000  0.04691117  0.00000000       0.016
   0.00000000  0.07036675  0.02331434       0.032
   0.00000000 -0.02345558 -0.06994303       0.032
   0.00000000  0.00000000 -0.04662869       0.016
   0.16818375  0.00000000  0.00000000       0.016
   0.00000000  0.09382234  0.00000000       0.016
   0.00000000  0.00000000 -0.09325738       0.016
 
 k-points in reciprocal lattice and weights: Kpoints from vasprun.xml                
   0.00000000  0.00000000  0.00000000       0.008
   0.20000000  0.00000000  0.00000000       0.032
   0.40000000  0.00000000  0.00000000       0.032
   0.00000000  0.20000000  0.00000000       0.032
   0.20000000  0.20000000  0.00000000       0.064
   0.40000000  0.20000000  0.00000000       0.064
  -0.40000000  0.20000000  0.00000000       0.064
  -0.20000000  0.20000000  0.00000000       0.032
   0.00000000  0.40000000  0.00000000       0.032
   0.20000000  0.40000000  0.00000000       0.064
   0.40000000  0.40000000  0.00000000       0.064
  -0.40000000  0.40000000  0.00000000       0.032
  -0.20000000  0.40000000  0.00000000       0.064
   0.20000000  0.20000000  0.20000000       0.064
  -0.20000000  0.20000000  0.20000000       0.016
  -0.40000000  0.40000000  0.20000000       0.032
  -0.20000000  0.40000000  0.20000000       0.032
   0.40000000 -0.40000000  0.20000000       0.032
  -0.40000000 -0.40000000  0.20000000       0.064
  -0.20000000 -0.40000000  0.20000000       0.032
   0.20000000 -0.20000000  0.20000000       0.016
   0.40000000 -0.20000000  0.20000000       0.032
  -0.40000000 -0.20000000  0.20000000       0.032
  -0.20000000 -0.20000000  0.20000000       0.016
  -0.40000000  0.40000000  0.40000000       0.016
   0.40000000 -0.40000000  0.40000000       0.016
  -0.40000000 -0.40000000  0.40000000       0.016
 
 position of ions in fractional coordinates (direct lattice) 
   0.00000000  0.00000000  0.00000000
   0.35880200  0.35880200  0.00000000
   0.64119800  0.64119800  0.00000000
   0.77507400  0.50000000  0.27507400
   0.22492600  0.50000000  0.72492600
   0.77611200  0.27611200  0.50000000
   0.22388800  0.72388800  0.50000000
   0.00000000  0.50000000  0.00000000
   0.00000000  0.00000000  0.50000000
   0.50000000  0.00000000  0.00000000
   0.50000000  0.50000000  0.50000000
   0.35995400  0.00000000  0.35995400
   0.64004600  0.00000000  0.64004600
   0.00000000  0.50000000  0.50000000
 
 position of ions in cartesian coordinates  (Angst):
   0.00000000  0.00000000  0.00000000
   0.00000000  0.00000000  3.07795066
   0.00000000  0.00000000  5.50045934
  -0.00000000  2.34548833  4.28920500
   2.37835100  1.91788867  0.00000000
   0.00000000  4.26337700  2.36860194
   2.37835100  0.00000000  1.92060306
   1.18917550 -2.13168850  2.14460250
   1.18917550  2.13168850 -2.14460250
  -1.18917550  2.13168850  2.14460250
   1.18917550  2.13168850  2.14460250
  -0.00000000  3.06923921  0.00000000
  -0.00000000  5.45751479 -0.00000000
   2.37835100  0.00000000  0.00000000
 


--------------------------------------------------------------------------------------------------------


 k-point   1 :   0.0000 0.0000 0.0000  plane waves:    4677
 k-point   2 :   0.2000 0.0000 0.0000  plane waves:    4660
 k-point   3 :   0.4000 0.0000 0.0000  plane waves:    4690
 k-point   4 :   0.0000 0.2000 0.0000  plane waves:    4668
 k-point   5 :   0.2000 0.2000 0.0000  plane waves:    4677
 k-point   6 :   0.4000 0.2000 0.0000  plane waves:    4684
 k-point   7 :  -0.4000 0.2000 0.0000  plane waves:    4682
 k-point   8 :  -0.2000 0.2000 0.0000  plane waves:    4663
 k-point   9 :   0.0000 0.4000 0.0000  plane waves:    4679
 k-point  10 :   0.2000 0.4000 0.0000  plane waves:    4694
 k-point  11 :   0.4000 0.4000 0.0000  plane waves:    4696
 k-point  12 :  -0.4000 0.4000 0.0000  plane waves:    4670
 k-point  13 :  -0.2000 0.4000 0.0000  plane waves:    4683
 k-point  14 :   0.2000 0.2000 0.2000  plane waves:    4695
 k-point  15 :  -0.2000 0.2000 0.2000  plane waves:    4693
 k-point  16 :  -0.4000 0.4000 0.2000  plane waves:    4692
 k-point  17 :  -0.2000 0.4000 0.2000  plane waves:    4698
 k-point  18 :   0.4000-0.4000 0.2000  plane waves:    4670
 k-point  19 :  -0.4000-0.4000 0.2000  plane waves:    4690
 k-point  20 :  -0.2000-0.4000 0.2000  plane waves:    4675
 k-point  21 :   0.2000-0.2000 0.2000  plane waves:    4664
 k-point  22 :   0.4000-0.2000 0.2000  plane waves:    4689
 k-point  23 :  -0.4000-0.2000 0.2000  plane waves:    4699
 k-point  24 :  -0.2000-0.2000 0.2000  plane waves:    4668
 k-point  25 :  -0.4000 0.4000 0.4000  plane waves:    4693
 k-point  26 :   0.4000-0.4000 0.4000  plane waves:    4674
 k-point  27 :  -0.4000-0.4000 0.4000  plane waves:    4686

 maximum and minimum number of plane-waves per node :      4699     4660

 maximum number of plane-waves:      4699
 maximum index in each direction: 
   IXMAX=   12   IYMAX=   12   IZMAX=   12
   IXMIN=  -12   IYMIN=  -12   IZMIN=  -12


 serial   3D FFT for wavefunctions
 parallel 3D FFT for charge:
    minimum data exchange during FFTs selected (reduces bandwidth)


 total amount of memory used by VASP MPI-rank0   275043. kBytes
=======================================================================

   base      :      30000. kBytes
   nonlr-proj:      21690. kBytes
   fftplans  :      33021. kBytes
   grid      :      30523. kBytes
   one-center:       1376. kBytes
   wavefun   :     158433. kBytes
 
     INWAV:  cpu time      0.0001: real time      0.0004
 Broyden mixing: mesh for mixing (old mesh)
   NGX = 25   NGY = 25   NGZ = 25
  (NGX  = 96   NGY  = 96   NGZ  = 96)
  gives a total of  15625 points

 initial charge density was supplied:
 charge density of overlapping atoms calculated
 number of electron     185.0000000 magnetization      67.6000000
 keeping initial charge density in first step


--------------------------------------------------------------------------------------------------------


 Maximum index for non-local projection operator         11133
 Maximum index for augmentation-charges         73031 (set IRDMAX)


--------------------------------------------------------------------------------------------------------


 First call to EWALD:  gamma=   0.318
 Maximum number of real-space cells 3x 4x 4
 Maximum number of reciprocal cells 3x 3x 3

    FEWALD:  cpu time      0.0010: real time      0.0010


--------------------------------------- Iteration      1(   1)  ---------------------------------------


    POTLOK:  cpu time      0.1098: real time      0.1561
    SETDIJ:  cpu time      2.5421: real time      2.5431
     EDDAV:  cpu time      9.9158: real time      9.9240
 BZINTS: Fermi energy:   26.971885;  185.000000 electrons
         Band energy: 0.570220E+03;  BLOECHL correction:   -0.191186
       DOS:  cpu time      0.3965: real time      0.3970
    --------------------------------------------
      LOOP:  cpu time     12.9642: real time     13.0201

 eigenvalue-minimisations  : 21800
 total energy-change (2. order) : 0.2708269E+04  (-0.8716287E+04)
 number of electron     185.0000000 magnetization      67.6000000
 augmentation part      185.0000000 magnetization      67.6000000

 Free energy of the ion-electron system (eV)
  ---------------------------------------------------
  alpha Z        PSCENC =      1578.76714752
  Ewald energy   TEWEN  =    -22226.87876288
  -Hartree energ DENC   =     -7603.72986908
  -exchange      EXHF   =         0.00000000
  -V(xc)+E(xc)   XCENC  =       913.88876439
  PAW double counting   =     24872.42129655   -25925.96401361
  entropy T*S    EENTRO =         0.00000000
  eigenvalues    EBANDS =       570.21967740
  atomic energy  EATOM  =     30529.54524524
  Solvation  Ediel_sol  =         0.00000000
  ---------------------------------------------------
  free energy    TOTEN  =      2708.26948552 eV

  energy without entropy =     2708.26948552  energy(sigma->0) =     2708.26948552


--------------------------------------------------------------------------------------------------------




--------------------------------------- Iteration      1(   2)  ---------------------------------------


     EDDAV:  cpu time      8.3743: real time      8.3798
 BZINTS: Fermi energy:   13.104957;  185.000000 electrons
         Band energy:-0.183924E+04;  BLOECHL correction:   -0.110431
       DOS:  cpu time      0.3583: real time      0.3585
    --------------------------------------------
      LOOP:  cpu time      8.7326: real time      8.7383

 eigenvalue-minimisations  : 17552
 total energy-change (2. order) :-0.2409464E+04  (-0.2202099E+04)
 number of electron     185.0000000 magnetization      67.6000000
 augmentation part      185.0000000 magnetization      67.6000000

 Free energy of the ion-electron system (eV)
  ---------------------------------------------------
  alpha Z        PSCENC =      1578.76714752
  Ewald energy   TEWEN  =    -22226.87876288
  -Hartree energ DENC   =     -7603.72986908
  -exchange      EXHF   =         0.00000000
  -V(xc)+E(xc)   XCENC  =       913.88876439
  PAW double counting   =     24872.42129655   -25925.96401361
  entropy T*S    EENTRO =         0.00000000
  eigenvalues    EBANDS =     -1839.24462077
  atomic energy  EATOM  =     30529.54524524
  Solvation  Ediel_sol  =         0.00000000
  ---------------------------------------------------
  free energy    TOTEN  =       298.80518735 eV

  energy without entropy =      298.80518735  energy(sigma->0) =      298.80518735


--------------------------------------------------------------------------------------------------------




--------------------------------------- Iteration      1(   3)  ---------------------------------------


     EDDAV:  cpu time      7.8626: real time      7.8701
 BZINTS: Fermi energy:   10.147443;  185.000000 electrons
         Band energy:-0.223628E+04;  BLOECHL correction:   -0.019369
       DOS:  cpu time      0.3447: real time      0.3449
    --------------------------------------------
      LOOP:  cpu time      8.2073: real time      8.2150

 eigenvalue-minimisations  : 16004
 total energy-change (2. order) :-0.3970348E+03  (-0.3521412E+03)
 number of electron     185.0000000 magnetization      67.6000000
 augmentation part      185.0000000 magnetization      67.6000000

 Free energy of the ion-electron system (eV)
  ---------------------------------------------------
  alpha Z        PSCENC =      1578.76714752
  Ewald energy   TEWEN  =    -22226.87876288
  -Hartree energ DENC   =     -7603.72986908
  -exchange      EXHF   =         0.00000000
  -V(xc)+E(xc)   XCENC  =       913.88876439
  PAW double counting   =     24872.42129655   -25925.96401361
  entropy T*S    EENTRO =         0.00000000
  eigenvalues    EBANDS =     -2236.27941100
  atomic energy  EATOM  =     30529.54524524
  Solvation  Ediel_sol  =         0.00000000
  ---------------------------------------------------
  free energy    TOTEN  =       -98.22960287 eV

  energy without entropy =      -98.22960287  energy(sigma->0) =      -98.22960287


--------------------------------------------------------------------------------------------------------




--------------------------------------- Iteration      1(   4)  ---------------------------------------


     EDDAV:  cpu time      8.6335: real time      8.6417
 BZINTS: Fermi energy:    9.947351;  185.000000 electrons
         Band energy:-0.227001E+04;  BLOECHL correction:   -0.017512
       DOS:  cpu time      0.3487: real time      0.3489
    --------------------------------------------
      LOOP:  cpu time      8.9822: real time      8.9906

 eigenvalue-minimisations  : 18096
 total energy-change (2. order) :-0.3373233E+02  (-0.3225500E+02)
 number of electron     185.0000000 magnetization      67.6000000
 augmentation part      185.0000000 magnetization      67.6000000

 Free energy of the ion-electron system (eV)
  ---------------------------------------------------
  alpha Z        PSCENC =      1578.76714752
  Ewald energy   TEWEN  =    -22226.87876288
  -Hartree energ DENC   =     -7603.72986908
  -exchange      EXHF   =         0.00000000
  -V(xc)+E(xc)   XCENC  =       913.88876439
  PAW double counting   =     24872.42129655   -25925.96401361
  entropy T*S    EENTRO =         0.00000000
  eigenvalues    EBANDS =     -2270.01174593
  atomic energy  EATOM  =     30529.54524524
  Solvation  Ediel_sol  =         0.00000000
  ---------------------------------------------------
  free energy    TOTEN  =      -131.96193781 eV

  energy without entropy =     -131.96193781  energy(sigma->0) =     -131.96193781


--------------------------------------------------------------------------------------------------------




--------------------------------------- Iteration      1(   5)  ---------------------------------------


     EDDAV:  cpu time     10.0781: real time     10.0866
 BZINTS: Fermi energy:    9.941118;  185.000000 electrons
         Band energy:-0.227130E+04;  BLOECHL correction:   -0.017731
       DOS:  cpu time      0.3436: real time      0.3438
    CHARGE:  cpu time      0.3253: real time      0.3259
    MIXING:  cpu time      0.0022: real time      0.0022
    --------------------------------------------
      LOOP:  cpu time     10.7492: real time     10.7585

 eigenvalue-minimisations  : 22200
 total energy-change (2. order) :-0.1289720E+01  (-0.1276712E+01)
 number of electron     185.0000008 magnetization      40.1359534
 augmentation part       96.2103642 magnetization      28.3816039

 Broyden mixing:
  rms(total) = 0.91686E+01    rms(broyden)= 0.91686E+01
  rms(prec ) = 0.15016E+02
  weight for this iteration     100.00

 Free energy of the ion-electron system (eV)
  ---------------------------------------------------
  alpha Z        PSCENC =      1578.76714752
  Ewald energy   TEWEN  =    -22226.87876288
  -Hartree energ DENC   =     -7603.72986908
  -exchange      EXHF   =         0.00000000
  -V(xc)+E(xc)   XCENC  =       913.88876439
  PAW double counting   =     24872.42129655   -25925.96401361
  entropy T*S    EENTRO =         0.00000000
  eigenvalues    EBANDS =     -2271.30146635
  atomic energy  EATOM  =     30529.54524524
  Solvation  Ediel_sol  =         0.00000000
  ---------------------------------------------------
  free energy    TOTEN  =      -133.25165822 eV

  energy without entropy =     -133.25165822  energy(sigma->0) =     -133.25165822


--------------------------------------------------------------------------------------------------------




--------------------------------------- Iteration      1(   6)  ---------------------------------------


    POTLOK:  cpu time      0.0084: real time      0.0093
    SETDIJ:  cpu time      2.5649: real time      2.5668
     EDDAV:  cpu time     10.5798: real time     10.5856
 BZINTS: Fermi energy:    6.017950;  185.000000 electrons
         Band energy:-0.306407E+04;  BLOECHL correction:   -0.088942
       DOS:  cpu time      0.3533: real time      0.3534
    CHARGE:  cpu time      0.3233: real time      0.3236
    MIXING:  cpu time      0.0024: real time      0.0051
    --------------------------------------------
      LOOP:  cpu time     13.8321: real time     13.8438

 eigenvalue-minimisations  : 23464
 total energy-change (2. order) :-0.5256249E+03  (-0.4449890E+03)
 number of electron     185.0000010 magnetization      30.9897544
 augmentation part      114.3296332 magnetization      28.0523823

 Broyden mixing:
  rms(total) = 0.14329E+02    rms(broyden)= 0.14329E+02
  rms(prec ) = 0.28558E+02
  weight for this iteration     100.00

 eigenvalues of (default mixing * dielectric matrix)
  average eigenvalue GAMMA=   0.4011
  0.4011

 Free energy of the ion-electron system (eV)
  ---------------------------------------------------
  alpha Z        PSCENC =      1578.76714752
  Ewald energy   TEWEN  =    -22226.87876288
  -Hartree energ DENC   =     -7156.87563723
  -exchange      EXHF   =         0.00000000
  -V(xc)+E(xc)   XCENC  =       876.75593622
  PAW double counting   =     25953.77267791   -27149.89748212
  entropy T*S    EENTRO =         0.00000000
  eigenvalues    EBANDS =     -3064.06568371
  atomic energy  EATOM  =     30529.54524524
  Solvation  Ediel_sol  =         0.00000000
  ---------------------------------------------------
  free energy    TOTEN  =      -658.87655905 eV

  energy without entropy =     -658.87655905  energy(sigma->0) =     -658.87655905


--------------------------------------------------------------------------------------------------------




--------------------------------------- Iteration      1(   7)  ---------------------------------------


    POTLOK:  cpu time      0.0085: real time      0.0089
    SETDIJ:  cpu time      2.5339: real time      2.5348
     EDDAV:  cpu time     11.0117: real time     11.0175
 BZINTS: Fermi energy:    8.903037;  185.000000 electrons
         Band energy:-0.246583E+04;  BLOECHL correction:   -0.025504
       DOS:  cpu time      0.3370: real time      0.3371
    CHARGE:  cpu time      0.3224: real time      0.3225
    MIXING:  cpu time      0.0021: real time      0.0021
    --------------------------------------------
      LOOP:  cpu time     14.2156: real time     14.2230

 eigenvalue-minimisations  : 25040
 total energy-change (2. order) : 0.3768351E+03  (-0.2281186E+02)
 number of electron     185.0000007 magnetization      30.6370474
 augmentation part       96.9090531 magnetization      22.3712554

 Broyden mixing:
  rms(total) = 0.88656E+01    rms(broyden)= 0.88654E+01
  rms(prec ) = 0.18948E+02
  weight for this iteration     100.00

 eigenvalues of (default mixing * dielectric matrix)
  average eigenvalue GAMMA=   0.4341
  0.4341  0.4341

 Free energy of the ion-electron system (eV)
  ---------------------------------------------------
  alpha Z        PSCENC =      1578.76714752
  Ewald energy   TEWEN  =    -22226.87876288
  -Hartree energ DENC   =     -7403.30247782
  -exchange      EXHF   =         0.00000000
  -V(xc)+E(xc)   XCENC  =       879.95687003
  PAW double counting   =     26784.67836865   -27958.97514378
  entropy T*S    EENTRO =         0.00000000
  eigenvalues    EBANDS =     -2465.83270515
  atomic energy  EATOM  =     30529.54524524
  Solvation  Ediel_sol  =         0.00000000
  ---------------------------------------------------
  free energy    TOTEN  =      -282.04145820 eV

  energy without entropy =     -282.04145820  energy(sigma->0) =     -282.04145820


--------------------------------------------------------------------------------------------------------




--------------------------------------- Iteration      1(   8)  ---------------------------------------


    POTLOK:  cpu time      0.0081: real time      0.0093
    SETDIJ:  cpu time      2.5428: real time      2.5437
     EDDAV:  cpu time     11.2859: real time     11.2916
 BZINTS: Fermi energy:    8.768243;  185.000000 electrons
         Band energy:-0.254287E+04;  BLOECHL correction:   -0.017040
       DOS:  cpu time      0.3392: real time      0.3393
    CHARGE:  cpu time      0.3233: real time      0.3234
    MIXING:  cpu time      0.0021: real time      0.0021
    --------------------------------------------
      LOOP:  cpu time     14.5015: real time     14.5095

 eigenvalue-minimisations  : 25464
 total energy-change (2. order) : 0.8568224E+02  (-0.7889786E+01)
 number of electron     185.0000008 magnetization      29.0152598
 augmentation part       98.9949771 magnetization      23.6185125

 Broyden mixing:
  rms(total) = 0.68277E+01    rms(broyden)= 0.68276E+01
  rms(prec ) = 0.14449E+02
  weight for this iteration     100.00

 eigenvalues of (default mixing * dielectric matrix)
  average eigenvalue GAMMA=   0.4293
  0.5653  0.5653  0.1572

 Free energy of the ion-electron system (eV)
  ---------------------------------------------------
  alpha Z        PSCENC =      1578.76714752
  Ewald energy   TEWEN  =    -22226.87876288
  -Hartree energ DENC   =     -7284.88724085
  -exchange      EXHF   =         0.00000000
  -V(xc)+E(xc)   XCENC  =       875.52106772
  PAW double counting   =     26544.90351614   -27670.46258416
  entropy T*S    EENTRO =         0.00000000
  eigenvalues    EBANDS =     -2542.86761070
  atomic energy  EATOM  =     30529.54524524
  Solvation  Ediel_sol  =         0.00000000
  ---------------------------------------------------
  free energy    TOTEN  =      -196.35922197 eV

  energy without entropy =     -196.35922197  energy(sigma->0) =     -196.35922197


--------------------------------------------------------------------------------------------------------




--------------------------------------- Iteration      1(   9)  ---------------------------------------


    POTLOK:  cpu time      0.0082: real time      0.0094
    SETDIJ:  cpu time      2.5419: real time      2.5437
     EDDAV:  cpu time     10.5294: real time     10.5351
 BZINTS: Fermi energy:    7.880310;  185.000000 electrons
         Band energy:-0.260948E+04;  BLOECHL correction:   -0.037134
       DOS:  cpu time      0.3355: real time      0.3357
    CHARGE:  cpu time      0.3205: real time      0.3206
    MIXING:  cpu time      0.0023: real time      0.0023
    --------------------------------------------
      LOOP:  cpu time     13.7376: real time     13.7466

 eigenvalue-minimisations  : 23368
 total energy-change (2. order) : 0.6963527E+02  (-0.3305872E+01)
 number of electron     185.0000008 magnetization      21.8179453
 augmentation part      103.2412303 magnetization      15.2743814

 Broyden mixing:
  rms(total) = 0.52233E+01    rms(broyden)= 0.52233E+01
  rms(prec ) = 0.11265E+02
  weight for this iteration     100.00

 eigenvalues of (default mixing * dielectric matrix)
  average eigenvalue GAMMA=   0.4191
  0.9096  0.3055  0.3055  0.1556

 Free energy of the ion-electron system (eV)
  ---------------------------------------------------
  alpha Z        PSCENC =      1578.76714752
  Ewald energy   TEWEN  =    -22226.87876288
  -Hartree energ DENC   =     -7192.27987394
  -exchange      EXHF   =         0.00000000
  -V(xc)+E(xc)   XCENC  =       870.67026930
  PAW double counting   =     26380.97456210   -27458.04614761
  entropy T*S    EENTRO =         0.00000000
  eigenvalues    EBANDS =     -2609.47639457
  atomic energy  EATOM  =     30529.54524524
  Solvation  Ediel_sol  =         0.00000000
  ---------------------------------------------------
  free energy    TOTEN  =      -126.72395485 eV

  energy without entropy =     -126.72395485  energy(sigma->0) =     -126.72395485


--------------------------------------------------------------------------------------------------------




--------------------------------------- Iteration      1(  10)  ---------------------------------------


    POTLOK:  cpu time      0.0080: real time      0.0090
    SETDIJ:  cpu time      2.5396: real time      2.5406
     EDDAV:  cpu time     10.2705: real time     10.2761
 BZINTS: Fermi energy:    8.765856;  185.000000 electrons
         Band energy:-0.255678E+04;  BLOECHL correction:   -0.021260
       DOS:  cpu time      0.3474: real time      0.3475
    CHARGE:  cpu time      0.3214: real time      0.3216
    MIXING:  cpu time      0.0028: real time      0.0028
    --------------------------------------------
      LOOP:  cpu time     13.4897: real time     13.4976

 eigenvalue-minimisations  : 22816
 total energy-change (2. order) :-0.2481764E+02  (-0.5554211E+01)
 number of electron     185.0000007 magnetization      19.8532284
 augmentation part       97.2941403 magnetization      16.1784198

 Broyden mixing:
  rms(total) = 0.69259E+01    rms(broyden)= 0.69258E+01
  rms(prec ) = 0.14878E+02
  weight for this iteration     100.00

 eigenvalues of (default mixing * dielectric matrix)
  average eigenvalue GAMMA=   0.4108
  0.9999  0.3535  0.3535  0.2003  0.1469

 Free energy of the ion-electron system (eV)
  ---------------------------------------------------
  alpha Z        PSCENC =      1578.76714752
  Ewald energy   TEWEN  =    -22226.87876288
  -Hartree energ DENC   =     -7225.60375546
  -exchange      EXHF   =         0.00000000
  -V(xc)+E(xc)   XCENC  =       869.69968972
  PAW double counting   =     26799.24471648   -27919.53987841
  entropy T*S    EENTRO =         0.00000000
  eigenvalues    EBANDS =     -2556.77599248
  atomic energy  EATOM  =     30529.54524524
  Solvation  Ediel_sol  =         0.00000000
  ---------------------------------------------------
  free energy    TOTEN  =      -151.54159026 eV

  energy without entropy =     -151.54159026  energy(sigma->0) =     -151.54159026


--------------------------------------------------------------------------------------------------------




--------------------------------------- Iteration      1(  11)  ---------------------------------------


    POTLOK:  cpu time      0.0081: real time      0.0095
    SETDIJ:  cpu time      2.5378: real time      2.5388
     EDDAV:  cpu time      8.8516: real time      8.8574
 BZINTS: Fermi energy:    8.690133;  185.000000 electrons
         Band energy:-0.255862E+04;  BLOECHL correction:   -0.020302
       DOS:  cpu time      0.3401: real time      0.3401
    CHARGE:  cpu time      0.3246: real time      0.3248
    MIXING:  cpu time      0.0026: real time      0.0026
    --------------------------------------------
      LOOP:  cpu time     12.0648: real time     12.0733

 eigenvalue-minimisations  : 18732
 total energy-change (2. order) : 0.1204058E+02  (-0.1521402E+01)
 number of electron     185.0000008 magnetization      18.3662506
 augmentation part       97.2961444 magnetization      14.4362204

 Broyden mixing:
  rms(total) = 0.52062E+01    rms(broyden)= 0.52062E+01
  rms(prec ) = 0.11528E+02
  weight for this iteration     100.00

 eigenvalues of (default mixing * dielectric matrix)
  average eigenvalue GAMMA=   0.4363
  1.0924  0.6714  0.2908  0.2908  0.1583  0.1142

 Free energy of the ion-electron system (eV)
  ---------------------------------------------------
  alpha Z        PSCENC =      1578.76714752
  Ewald energy   TEWEN  =    -22226.87876288
  -Hartree energ DENC   =     -7210.46164530
  -exchange      EXHF   =         0.00000000
  -V(xc)+E(xc)   XCENC  =       868.70760575
  PAW double counting   =     26877.71877339   -27998.27480569
  entropy T*S    EENTRO =         0.00000000
  eigenvalues    EBANDS =     -2558.62456493
  atomic energy  EATOM  =     30529.54524524
  Solvation  Ediel_sol  =         0.00000000
  ---------------------------------------------------
  free energy    TOTEN  =      -139.50100690 eV

  energy without entropy =     -139.50100690  energy(sigma->0) =     -139.50100690


--------------------------------------------------------------------------------------------------------




--------------------------------------- Iteration      1(  12)  ---------------------------------------


    POTLOK:  cpu time      0.0085: real time      0.0091
    SETDIJ:  cpu time      2.5506: real time      2.5520
     EDDAV:  cpu time     10.3458: real time     10.3524
 BZINTS: Fermi energy:    7.869490;  185.000000 electrons
         Band energy:-0.262440E+04;  BLOECHL correction:   -0.032394
       DOS:  cpu time      0.3285: real time      0.3286
    CHARGE:  cpu time      0.3238: real time      0.3242
    MIXING:  cpu time      0.0025: real time      0.0025
    --------------------------------------------
      LOOP:  cpu time     13.5599: real time     13.5688

 eigenvalue-minimisations  : 22968
 total energy-change (2. order) : 0.4487874E+01  (-0.4769712E+00)
 number of electron     185.0000008 magnetization      16.8007167
 augmentation part      101.9503384 magnetization      13.1796054

 Broyden mixing:
  rms(total) = 0.50347E+01    rms(broyden)= 0.50347E+01
  rms(prec ) = 0.11167E+02
  weight for this iteration     100.00

 eigenvalues of (default mixing * dielectric matrix)
  average eigenvalue GAMMA=   0.4473
  1.2545  0.5333  0.3976  0.3976  0.2715  0.1490  0.1277

 Free energy of the ion-electron system (eV)
  ---------------------------------------------------
  alpha Z        PSCENC =      1578.76714752
  Ewald energy   TEWEN  =    -22226.87876288
  -Hartree energ DENC   =     -7161.16668923
  -exchange      EXHF   =         0.00000000
  -V(xc)+E(xc)   XCENC  =       866.65668537
  PAW double counting   =     26933.21692652   -28030.75657207
  entropy T*S    EENTRO =         0.00000000
  eigenvalues    EBANDS =     -2624.39711356
  atomic energy  EATOM  =     30529.54524524
  Solvation  Ediel_sol  =         0.00000000
  ---------------------------------------------------
  free energy    TOTEN  =      -135.01313310 eV

  energy without entropy =     -135.01313310  energy(sigma->0) =     -135.01313310


--------------------------------------------------------------------------------------------------------




--------------------------------------- Iteration      1(  13)  ---------------------------------------


    POTLOK:  cpu time      0.0081: real time      0.0094
    SETDIJ:  cpu time      2.5253: real time      2.5262
     EDDAV:  cpu time      9.6928: real time      9.7007
 BZINTS: Fermi energy:    7.887488;  185.000000 electrons
         Band energy:-0.259133E+04;  BLOECHL correction:   -0.024248
       DOS:  cpu time      0.3400: real time      0.3402
    CHARGE:  cpu time      0.3235: real time      0.3237
    MIXING:  cpu time      0.0026: real time      0.0026
    --------------------------------------------
      LOOP:  cpu time     12.8922: real time     12.9027

 eigenvalue-minimisations  : 21164
 total energy-change (2. order) : 0.1559628E+02  (-0.4252557E+00)
 number of electron     185.0000008 magnetization      15.9568514
 augmentation part      101.4252071 magnetization      12.4749980

 Broyden mixing:
  rms(total) = 0.38809E+01    rms(broyden)= 0.38809E+01
  rms(prec ) = 0.85169E+01
  weight for this iteration     100.00

 eigenvalues of (default mixing * dielectric matrix)
  average eigenvalue GAMMA=   0.4224
  1.2866  0.5328  0.5328  0.3178  0.2755  0.1208  0.1563  0.1563

 Free energy of the ion-electron system (eV)
  ---------------------------------------------------
  alpha Z        PSCENC =      1578.76714752
  Ewald energy   TEWEN  =    -22226.87876288
  -Hartree energ DENC   =     -7166.79250547
  -exchange      EXHF   =         0.00000000
  -V(xc)+E(xc)   XCENC  =       866.71241856
  PAW double counting   =     27063.06157487   -28172.50391859
  entropy T*S    EENTRO =         0.00000000
  eigenvalues    EBANDS =     -2591.32805330
  atomic energy  EATOM  =     30529.54524524
  Solvation  Ediel_sol  =         0.00000000
  ---------------------------------------------------
  free energy    TOTEN  =      -119.41685406 eV

  energy without entropy =     -119.41685406  energy(sigma->0) =     -119.41685406


--------------------------------------------------------------------------------------------------------




--------------------------------------- Iteration      1(  14)  ---------------------------------------


    POTLOK:  cpu time      0.0083: real time      0.0091
    SETDIJ:  cpu time      2.5326: real time      2.5337
     EDDAV:  cpu time     10.1152: real time     10.1209
 BZINTS: Fermi energy:    8.605002;  185.000000 electrons
         Band energy:-0.258161E+04;  BLOECHL correction:   -0.021056
       DOS:  cpu time      0.3325: real time      0.3328
    CHARGE:  cpu time      0.3230: real time      0.3231
    MIXING:  cpu time      0.0027: real time      0.0027
    --------------------------------------------
      LOOP:  cpu time     13.3143: real time     13.3223

 eigenvalue-minimisations  : 22260
 total energy-change (2. order) :-0.1052658E+02  (-0.8127434E+01)
 number of electron     185.0000008 magnetization      15.9385674
 augmentation part       97.5352592 magnetization      13.0234760

 Broyden mixing:
  rms(total) = 0.50166E+01    rms(broyden)= 0.50166E+01
  rms(prec ) = 0.11172E+02
  weight for this iteration     100.00

 eigenvalues of (default mixing * dielectric matrix)
  average eigenvalue GAMMA=   0.4629
  1.3424  0.7477  0.7477  0.3712  0.3712  0.1911  0.1342  0.1342  0.1269

 Free energy of the ion-electron system (eV)
  ---------------------------------------------------
  alpha Z        PSCENC =      1578.76714752
  Ewald energy   TEWEN  =    -22226.87876288
  -Hartree energ DENC   =     -7176.16979195
  -exchange      EXHF   =         0.00000000
  -V(xc)+E(xc)   XCENC  =       867.09052261
  PAW double counting   =     27157.61783483   -28278.30881385
  entropy T*S    EENTRO =         0.00000000
  eigenvalues    EBANDS =     -2581.60681067
  atomic energy  EATOM  =     30529.54524524
  Solvation  Ediel_sol  =         0.00000000
  ---------------------------------------------------
  free energy    TOTEN  =      -129.94342915 eV

  energy without entropy =     -129.94342915  energy(sigma->0) =     -129.94342915


--------------------------------------------------------------------------------------------------------




--------------------------------------- Iteration      1(  15)  ---------------------------------------


    POTLOK:  cpu time      0.0082: real time      0.0092
    SETDIJ:  cpu time      2.5283: real time      2.5291
     EDDAV:  cpu time      9.8973: real time      9.9023
 BZINTS: Fermi energy:    8.282504;  185.000000 electrons
         Band energy:-0.258626E+04;  BLOECHL correction:   -0.005200
       DOS:  cpu time      0.3525: real time      0.3526
    CHARGE:  cpu time      0.3214: real time      0.3216
    MIXING:  cpu time      0.0027: real time      0.0027
[...]
  260          m_sumb_d                              0.000054                          2   4
  261        strnlr                                3.928771                            1   3
  262          rspher_all                            0.184504                          9   4
  263          phaser                                1.083776                        243   4
  264          rpro_isp                              2.651351                        243   4
  265            fftwav_mpi                            0.562825                    17982   5
  266              fftwav                                0.541190                  17982   6
  267                fft3d                                 0.121610                17982   7
  268            rpromu_acc                            1.180743                     4860   5
  269          m_sumb_d                              0.000015                          1   4
  270        fft3d_mpi                             0.003470                           22   3
  271          fftbrc_mpi                            0.002762                         22   4
  272            fftbas_plan_mpi                       0.002748                       22   5
  273              map_forward                           0.000967                     20   6
  274                map_gather                            0.000212                   10   7
  275                m_alltoallv_z                         0.000143                   10   7
  276                map_scatter                           0.000470                   10   7
  277              map_backward                          0.001133                     24   6
  278                map_gather                            0.000250                   12   7
  279                m_alltoallv_z                         0.000146                   12   7
  280                map_scatter                           0.000549                   12   7
  281        m_sumb_d                              0.000029                            5   3
  282        forhar                                0.002595                            2   3
  283          m_sumb_d                              0.000046                          2   4
  284        strehar                               0.001274                            1   3
  285          m_sumb_d                              0.000003                          1   4
  286        chggra                                0.000778                            1   3
  287          fft3d_mpi                             0.000463                          3   4
  288            fftbrc_mpi                            0.000364                        3   5
  289              fftbas_plan_mpi                       0.000363                      3   6
  290                map_forward                           0.000192                    4   7
  291                  map_gather                            0.000044                  2   8
  292                  m_alltoallv_z                         0.000027                  2   8
  293                  map_scatter                           0.000091                  2   8
  294                map_backward                          0.000086                    2   7
  295                  map_gather                            0.000021                  1   8
  296                  m_alltoallv_z                         0.000012                  1   8
  297                  map_scatter                           0.000037                  1   8
  298          m_sumb_d                              0.000009                          2   4
  299          pothar                                0.000077                          1   4
  300            m_sumb_d                              0.000006                        1   5
  301        brmix                                 0.008331                            1   3
  302          m_sumb_d                              0.000031                          6   4
  303          brpre                                 0.000028                          2   4
  304          setg0                                 0.000769                          1   4
  305          broyd                                 0.006555                          1   4
  306            m_sumb_d                              0.000197                       51   5
  307            brget                                 0.001333                      229   5
  308            brsav                                 0.000282                       49   5
  309        m_bcast_d                             0.000024                            2   3
  310      potlok                                0.029669                              2   2
  311        fft3d_mpi                             0.018640                           36   3
  312          fftbrc_mpi                            0.015927                         36   4
  313            fftbas_plan_mpi                       0.015913                       36   5
  314              map_forward                           0.004721                     40   6
  315                map_gather                            0.001522                   24   7
  316                m_alltoallv_z                         0.001664                   24   7
  317                map_scatter                           0.001351                   24   7
  318              map_backward                          0.004172                     32   6
  319                map_gather                            0.001248                   16   7
  320                m_alltoallv_z                         0.001620                   16   7
  321                map_scatter                           0.001110                   16   7
  322              dfftw_execute                         0.005357                     30   6
  323        m_sumb_d                              0.000024                            5   3
  324        pothar                                0.001136                            2   3
  325          m_sumb_d                              0.000108                          2   4
  326        m_bcast_d                             0.001867                            4   3
  327      potlok_metagga                        0.000000                              1   2
  328      set_dd_magatom                        0.000004                              1   2
  329      set_dd_paw                            2.403785                              1   2
  330        m_sumb_d                              0.933661                            7   3
  331      augmentation_charge                   0.116767                              1   2
  332        fft3d_mpi                             0.032153                            2   3
  333          fftbrc_mpi                            0.028979                          2   4
  334            fftbas_plan_mpi                       0.028975                        2   5
  335              dfftw_execute                         0.018989                      6   6
  336              map_backward                          0.009701                      4   6
  337                map_gather                            0.002347                    2   7
  338                m_alltoallv_z                         0.004648                    2   7
  339                map_scatter                           0.002696                    2   7
  340      fftwav_mpi                            4.707563                           5994   2
  341        fftwav                                4.700104                         5994   3
  342          fft3d                                 4.508303                       5994   4
  343      densta                               14.746654                              1   2
 
 Flat profile
 ============
 
             routine name                   CPU           calls
 ---------------------------------------------------------------
 m_sumb_d                              238.069739     1272196
 raccmu_                               225.459083      418693
 eddav                                 199.158665         119
 lapack                                175.025058      418693
 set_dd_paw                            173.205166         117
 redis_pw                               83.476410     2199144
 densta                                 55.183002         120
 m_alltoall_d                           41.462080     5903626
 phaser                                 29.353839        6777
 eccp                                   22.814356      237762
 fft3d                                  21.983505     2366258
 redis_proj                             18.644503     2769418
 fftwav                                 15.058420     1558276
 orth1                                  13.269167     1256349
 racc0mu_acc                            12.317255      418693
 w1_copy                                11.734419     2423946
 init_acc                               11.496121           1
 total_time                             11.479869           1
 overl                                  11.426981     1378256
 setdij_                                11.356296         143
 hamiltmu                               10.859513      418693
 rpromu_acc                             10.165133      303619
 augmentation_charge                     9.830253         116
 soft_charge                             9.514174         115
 m_bcast_z                               9.354241      426685
 setup_precond                           8.675435      237762
 m_bcast_d                               6.920097      837625
 overl_mu                                6.503357      418693
 dfftw_execute                           5.989258        3240
 ggemm                                   5.744392      540787
 pw_charge                               4.092831      148106
 vhamil                                  3.784502      807982
 kinhamil                                3.769989      807982
 depsum                                  3.753319         115
 fftext_mpi                              3.509784      807982
 newband                                 3.440938      425119
 apply_precond                           3.167552      570220
 acc_init_cublas                         2.466309           1
 fftwav_mpi                              2.095506     1558276
 m_alltoallv_z                           1.625683        4605
 fft3d_mpi                               1.393298      812103
 rpro_isp                                1.260649         351
 set_charge                              0.968764         115
 map_scatter                             0.950842        4605
 acc_init_cusolver                       0.795010           1
 map_gather                              0.791744        4605
 potlok                                  0.429798         117
 broyd                                   0.401816         115
 w1_projall                              0.306299      296599
 rspher_all                              0.273053          14
 sphpro_fast                             0.261523           2
 elmin                                   0.245706           1
 lincom                                  0.232184        6480
 fftbas_plan_mpi                         0.225661        4121
 brget                                   0.129730       22317
 acc_cufft_makeplan                      0.122500          19
 brmix                                   0.115102         115
 setg0                                   0.091356         117
 truncate_high_frequency_w1              0.083993     1045744
 proall                                  0.074766           1
 brsav                                   0.034557        6165
 orthch                                  0.033713           1
 map_backward                            0.024367        4338
 map_forward                             0.021986        3904
 choleski                                0.020246          54
 force_and_stress                        0.019492           1
 pothar                                  0.009801         118
 strnlr                                  0.009125           1
 fft_gq                                  0.006332         115
 stufak                                  0.006058           1
 inisym                                  0.004313           1
 brpre                                   0.003512         230
 fornlr                                  0.003135           1
 forhar                                  0.002549           2
 fftbrc_mpi                              0.002475        4121
 strelo                                  0.001740           1
 forloc                                  0.001333           1
 strehar                                 0.001271           1
 strkin                                  0.001148           1
 set_dd_magatom                          0.000538         117
 rsp                                     0.000519           1
 vectorpot                               0.000484         116
 fewald                                  0.000346           1
 chggra                                  0.000229           1
 brgrid                                  0.000166           1
 fordep                                  0.000104           1
 posmap                                  0.000029           2
 crpa_reader                             0.000027           1
 rcp                                     0.000022           1
 acc_cufft_makeplans                     0.000012           3
 potlok_metagga                          0.000009         116
 redis_pw_over_bands                     0.000001           1
 rotate_active_occupied_orbital          0.000000           1
 ---------------------------------------------------------------
  summed up times     1506.599634170532     
 
 Accumulative profile
 ====================
 
             routine name                   CPU           calls
 ---------------------------------------------------------------
 total_time                           1506.599634           1
 elmin                                1444.928587           1
 eddav                                1074.260313         119
 set_dd_paw                            282.191594         117
 hamiltmu                              272.186637      418693
 raccmu_                               244.279695      418693
 m_sumb_d                              238.069739     1272196
 lapack                                175.025058      418693
 redis_pw                              104.092326     2199144
 densta                                 55.183002         120
 newband                                52.895824      425119
 m_alltoall_d                           41.462080     5903626
 redis_proj                             39.490668     2769418
 set_charge                             37.097041         115
 fftwav_mpi                             33.398278     1558276
 fftwav                                 31.302771     1558276
 phaser                                 29.353839        6777
 eccp                                   22.814356      237762
 fft3d                                  21.983505     2366258
 soft_charge                            18.619120         115
 setdij_                                17.352097         143
 fft3d_mpi                              16.764467      812103
 augmentation_charge                    13.715098         116
 orth1                                  13.269167     1256349
 kinhamil                               13.262927      807982
 racc0mu_acc                            12.317255      418693
 w1_copy                                11.734419     2423946
 init_acc                               11.496121           1
 overl                                  11.426981     1378256
 force_and_stress                       11.138724           1
 rpromu_acc                             10.165133      303619
 fftbrc_mpi                              9.632015        4121
 fftbas_plan_mpi                         9.629539        4121
 fftext_mpi                              9.492939      807982
 m_bcast_z                               9.354241      426685
 w1_projall                              8.880734      296599
 setup_precond                           8.675435      237762
 m_bcast_d                               6.920097      837625
 overl_mu                                6.503357      418693
 dfftw_execute                           5.989258        3240
 ggemm                                   5.744392      540787
 pw_charge                               4.092831      148106
 strnlr                                  3.928771           1
 vhamil                                  3.784502      807982
 depsum                                  3.771561         115
 rpro_isp                                3.631656         351
 apply_precond                           3.167552      570220
 acc_init_cublas                         2.466309           1
 map_forward                             1.716259        3904
 map_backward                            1.698361        4338
 m_alltoallv_z                           1.625683        4605
 fornlr                                  1.304359           1
 potlok                                  1.081611         117
 map_scatter                             0.950842        4605
 brmix                                   0.801668         115
 acc_init_cusolver                       0.795010           1
 map_gather                              0.791744        4605
 fordep                                  0.726829           1
 broyd                                   0.586495         115
 orthch                                  0.408482           1
 proall                                  0.290631           1
 rspher_all                              0.273053          14
 sphpro_fast                             0.270774           2
 lincom                                  0.232184        6480
 fft_gq                                  0.198438         115
 brget                                   0.129730       22317
 acc_cufft_makeplans                     0.122513           3
 acc_cufft_makeplan                      0.122500          19
 setg0                                   0.091356         117
 truncate_high_frequency_w1              0.083993     1045744
 brsav                                   0.034557        6165
 choleski                                0.020246          54
 pothar                                  0.010885         118
 stufak                                  0.006058           1
 inisym                                  0.004342           1
 brpre                                   0.003512         230
 forhar                                  0.002595           2
 strelo                                  0.001794           1
 forloc                                  0.001368           1
 strehar                                 0.001274           1
 strkin                                  0.001153           1
 fewald                                  0.001003           1
 chggra                                  0.000778           1
 set_dd_magatom                          0.000538         117
 rsp                                     0.000519           1
 vectorpot                               0.000484         116
 brgrid                                  0.000166           1
 posmap                                  0.000029           2
 crpa_reader                             0.000027           1
 rcp                                     0.000022           1
 potlok_metagga                          0.000009         116
 redis_pw_over_bands                     0.000001           1
 rotate_active_occupied_orbital          0.000000           1
 ---------------------------------------------------------------
 
Profiling took   5.027470  2.468291  0.003580  0.003486 seconds
Profiling took   3.153035 seconds
