 vasp.6.3.2 27Jun22 (build Jul  3 2023 11:46:21) complex                         
 executed on    LinuxNV_CrayMPICH date 2024.04.21  06:49:09
 running on    4 total cores
 distrk:  each k-point on    4 cores,    1 groups
 distr:  one band on NCORE=   1 cores,    4 groups


--------------------------------------------------------------------------------------------------------


 INCAR:
   ADDGRID = True
   ALGO = Normal
   EDIFF = 0.0006
   ENCUT = 520.0
   IBRION = -1
   ICHARG = 0
   ISIF = 3
   ISMEAR = -5
   ISPIN = 2
   KPOINT_BSE = -1 0 0 0
   LAECHG = True
   LASPH = True
   LCHARG = True
   LELF = True
   LORBIT = 11
   LREAL = Auto
   LVHAR = True
   LWAVE = False
   MAGMOM = 1*7.0 3*0.6 8*5.0
   NELM = 1000
   NSW = 0
   PREC = accurate
   SIGMA = 0.05

 POTCAR:    PAW_PBE Gd 23Dec2003                  
 POTCAR:    PAW_PBE Mg_pv 13Apr2007               
 POTCAR:    PAW_PBE Ni_pv 06Sep2000               
 POTCAR:    PAW_PBE Gd 23Dec2003                  
   SHA256 =  58854b40b4643190560b0e2b62d2ab46bea96585f82c6231a0f4f44b8c3188dc Gd/POTCAR             
   COPYR  = (c) Copyright 23Dec2003 Georg Kresse                                                    
   COPYR  = This file is part of the software VASP. Any use, copying, and all other rights are regul
   COPYR  = If you do not have a valid VASP license, you may not use, copy or distribute this file. 
   VRHFIN =Gd : [core=Xe4]                                                                          
   LEXCH  = PE                                                                                      
   EATOM  =  3047.6032 eV,  223.9925 Ry                                                             
                                                                                                    
   TITEL  = PAW_PBE Gd 23Dec2003                                                                    
   LULTRA =        F    use ultrasoft PP ?                                                          
   IUNSCR =        1    unscreen: 0-lin 1-nonlin 2-no                                               
   RPACOR =    2.300    partial core radius                                                         
   POMASS =  157.250; ZVAL   =   18.000    mass and valenz                                          
   RCORE  =    2.800    outmost cutoff radius                                                       
   RWIGS  =    2.800; RWIGS  =    1.482    wigner-seitz radius (au A)                               
   ENMAX  =  256.472; ENMIN  =  192.354 eV                                                          
   RCLOC  =    2.316    cutoff for local pot                                                        
   LCOR   =        T    correct aug charges                                                         
   LPAW   =        T    paw PP                                                                      
   EAUG   =  537.243                                                                                
   DEXC   =    0.000                                                                                
   RMAX   =    2.857    core radius for proj-oper                                                   
   RAUG   =    1.300    factor for augmentation sphere                                              
   RDEP   =    2.921    radius for radial grids                                                     
   RDEPT  =    2.247    core radius for aug-charge                                                  
                                                                                                    
   Atomic configuration                                                                             
   14 entries                                                                                       
     n  l   j            E        occ.                                                              
     1  0  0.50    -50087.2354   2.0000                                                             
     2  0  0.50     -8269.2182   2.0000                                                             
     2  1  1.50     -7357.3672   6.0000                                                             
     3  0  0.50     -1833.2681   2.0000                                                             
     3  1  1.50     -1550.9376   6.0000                                                             
     3  2  2.50     -1178.7204  10.0000                                                             
     4  0  0.50      -369.2978   2.0000                                                             
     4  1  1.50      -276.2601   6.0000                                                             
     4  2  2.50      -147.6611  10.0000                                                             
     5  0  0.50       -49.7260   2.0000                                                             
     6  0  0.50        -4.1254   2.0000                                                             
     5  1  1.50       -27.2538   6.0000                                                             
     5  2  2.50        -2.5337   1.0000                                                             
     4  3  2.50        -8.7140   7.0000                                                             
   Description                                                                                      
     l       E           TYP  RCUT    TYP  RCUT                                                     
     0    -49.7259557     23  2.400                                                                 
     0     -4.1254107     23  2.400                                                                 
     1    -27.2537518     23  2.400                                                                 
     1     20.4087390     23  2.400                                                                 
     2     -2.5337329     23  2.500                                                                 
     2     13.6058260     23  2.500                                                                 
     3     -8.7140389     23  2.800                                                                 
     3     -9.5240782     23  2.800                                                                 
  local pseudopotential read in
  partial core-charges read in
  partial kinetic energy density read in
  atomic valenz-charges read in
  non local Contribution for L=            0  read in
    real space projection operators read in
  non local Contribution for L=            0  read in
    real space projection operators read in
  non local Contribution for L=            1  read in
    real space projection operators read in
  non local Contribution for L=            1  read in
    real space projection operators read in
  non local Contribution for L=            2  read in
    real space projection operators read in
  non local Contribution for L=            2  read in
    real space projection operators read in
  non local Contribution for L=            3  read in
    real space projection operators read in
  non local Contribution for L=            3  read in
    real space projection operators read in
    PAW grid and wavefunctions read in
 
   number of l-projection  operators is LMAX  =            8
   number of lm-projection operators is LMMAX =           32
 
 POTCAR:    PAW_PBE Mg_pv 13Apr2007               
   SHA256 =  f474ac0dd33840b9ae76c01d57fea79fdf77cdfbb07d5ade72c65f83c709b62b Mg_pv/POTCAR          
   COPYR  = (c) Copyright 13Apr2007 Georg Kresse                                                    
   COPYR  = This file is part of the software VASP. Any use, copying, and all other rights are regul
   COPYR  = If you do not have a valid VASP license, you may not use, copy or distribute this file. 
   VRHFIN =Mg: p6s2                                                                                 
   LEXCH  = PE                                                                                      
   EATOM  =  1056.7344 eV,   77.6678 Ry                                                             
                                                                                                    
   TITEL  = PAW_PBE Mg_pv 13Apr2007                                                                 
   LULTRA =        F    use ultrasoft PP ?                                                          
   IUNSCR =        1    unscreen: 0-lin 1-nonlin 2-no                                               
   RPACOR =    1.500    partial core radius                                                         
   POMASS =   24.305; ZVAL   =    8.000    mass and valenz                                          
   RCORE  =    2.000    outmost cutoff radius                                                       
   RWIGS  =    2.000; RWIGS  =    1.058    wigner-seitz radius (au A)                               
   ENMAX  =  403.929; ENMIN  =  302.947 eV                                                          
   RCLOC  =    1.506    cutoff for local pot                                                        
   LCOR   =        T    correct aug charges                                                         
   LPAW   =        T    paw PP                                                                      
   EAUG   =  758.780                                                                                
   DEXC   =    0.000                                                                                
   RMAX   =    2.045    core radius for proj-oper                                                   
   RAUG   =    1.300    factor for augmentation sphere                                              
   RDEP   =    2.025    radius for radial grids                                                     
   RDEPT  =    1.557    core radius for aug-charge                                                  
                                                                                                    
   Atomic configuration                                                                             
    5 entries                                                                                       
     n  l   j            E        occ.                                                              
     1  0  0.50     -1259.6230   2.0000                                                             
     2  0  0.50       -79.8442   2.0000                                                             
     2  1  1.50       -46.6121   6.0000                                                             
     3  0  0.50        -4.7055   2.0000                                                             
     3  2  1.50        -1.3606   0.0000                                                             
   Description                                                                                      
     l       E           TYP  RCUT    TYP  RCUT                                                     
     1    -46.6121073     23  1.600                                                                 
     1      2.7211652     23  1.600                                                                 
     0     -4.7054661     23  2.000                                                                 
     0     61.2262170     23  2.000                                                                 
     2     -1.3605826     23  2.000                                                                 
  local pseudopotential read in
  partial core-charges read in
  partial kinetic energy density read in
  atomic valenz-charges read in
  non local Contribution for L=            1  read in
    real space projection operators read in
  non local Contribution for L=            1  read in
    real space projection operators read in
  non local Contribution for L=            0  read in
    real space projection operators read in
  non local Contribution for L=            0  read in
    real space projection operators read in
  non local Contribution for L=            2  read in
    real space projection operators read in
    PAW grid and wavefunctions read in
 
   number of l-projection  operators is LMAX  =            5
   number of lm-projection operators is LMMAX =           13
 
 POTCAR:    PAW_PBE Ni_pv 06Sep2000               
   SHA256 =  368cd815a19284a5fda64519f43fef792dad8376deb9e2da41aae78b997dc50e Ni_pv/POTCAR          
   COPYR  = (c) Copyright 06Sep2000 Georg Kresse                                                    
   COPYR  = This file is part of the software VASP. Any use, copying, and all other rights are regul
   COPYR  = If you do not have a valid VASP license, you may not use, copy or distribute this file. 
   VRHFIN =Ni:                                                                                      
   LEXCH  = PE                                                                                      
   EATOM  =  3501.1230 eV,  257.3253 Ry                                                             
                                                                                                    
   TITEL  = PAW_PBE Ni_pv 06Sep2000                                                                 
   LULTRA =        F    use ultrasoft PP ?                                                          
   IUNSCR =        1    unscreen: 0-lin 1-nonlin 2-no                                               
   RPACOR =    1.500    partial core radius                                                         
   POMASS =   58.690; ZVAL   =   16.000    mass and valenz                                          
   RCORE  =    2.000    outmost cutoff radius                                                       
   RWIGS  =    2.000; RWIGS  =    1.058    wigner-seitz radius (au A)                               
   ENMAX  =  367.986; ENMIN  =  275.989 eV                                                          
   RCLOC  =    1.301    cutoff for local pot                                                        
   LCOR   =        T    correct aug charges                                                         
   LPAW   =        T    paw PP                                                                      
   EAUG   =  703.443                                                                                
   DEXC   =    0.000                                                                                
   RMAX   =    2.041    core radius for proj-oper                                                   
   RAUG   =    1.300    factor for augmentation sphere                                              
   RDEP   =    2.103    radius for radial grids                                                     
   RDEPT  =    1.618    core radius for aug-charge                                                  
                                                                                                    
   Atomic configuration                                                                             
    8 entries                                                                                       
     n  l   j            E        occ.                                                              
     1  0  0.50     -8206.4253   2.0000                                                             
     2  0  0.50      -976.1748   2.0000                                                             
     2  1  1.50      -839.0571   6.0000                                                             
     3  0  0.50      -105.9991   2.0000                                                             
     3  1  1.50       -66.4603   6.0000                                                             
     3  2  2.50        -4.6458   9.0000                                                             
     4  0  0.50        -4.4926   1.0000                                                             
     4  3  2.50        -1.3606   0.0000                                                             
   Description                                                                                      
     l       E           TYP  RCUT    TYP  RCUT                                                     
     1    -66.4602962     23  1.700                                                                 
     1     -1.3605826     23  1.700                                                                 
     2     -4.6457867     23  2.000                                                                 
     2     -6.0063693     23  2.000                                                                 
     0     -4.4925576     23  1.900                                                                 
     0     16.3626226     23  1.900                                                                 
  local pseudopotential read in
  partial core-charges read in
  partial kinetic energy density read in
  atomic valenz-charges read in
  non local Contribution for L=            1  read in
    real space projection operators read in
  non local Contribution for L=            1  read in
    real space projection operators read in
  non local Contribution for L=            2  read in
    real space projection operators read in
  non local Contribution for L=            2  read in
    real space projection operators read in
  non local Contribution for L=            0  read in
    real space projection operators read in
  non local Contribution for L=            0  read in
    real space projection operators read in
    PAW grid and wavefunctions read in
 
   number of l-projection  operators is LMAX  =            6
   number of lm-projection operators is LMMAX =           18
 
 Optimization of the real space projectors (new method)

 maximal supplied QI-value         = 13.42
 optimisation between [QCUT,QGAM] = [ 11.67, 23.35] = [ 38.16,152.62] Ry 
 Optimized for a Real-space Cutoff    1.63 Angstroem

   l    n(q)    QCUT    max X(q) W(low)/X(q) W(high)/X(q)  e(spline) 
   0     11    11.673    10.501    0.14E-04    0.17E-05    0.21E-07
   0     11    11.673     9.148    0.21E-04    0.32E-05    0.45E-07
   1     11    11.673     4.035    0.33E-05    0.11E-04    0.84E-07
   1     11    11.673     4.388    0.11E-04    0.47E-04    0.34E-06
   2     10    11.673    20.656    0.12E-04    0.28E-04    0.54E-06
   2     10    11.673    12.651    0.11E-04    0.26E-04    0.51E-06
   3     10    11.673    61.921    0.19E-03    0.22E-03    0.23E-06
   3     10    11.673    48.328    0.20E-03    0.23E-03    0.23E-06
 Optimization of the real space projectors (new method)

 maximal supplied QI-value         = 18.90
 optimisation between [QCUT,QGAM] = [ 11.53, 23.24] = [ 37.21,151.29] Ry 
 Optimized for a Real-space Cutoff    1.28 Angstroem

   l    n(q)    QCUT    max X(q) W(low)/X(q) W(high)/X(q)  e(spline) 
   1      8    11.527     2.974    0.44E-04    0.56E-04    0.12E-06
   1      8    11.527     4.279    0.12E-03    0.12E-03    0.26E-06
   0      9    11.527    16.381    0.46E-04    0.64E-04    0.78E-07
   0      9    11.527     5.611    0.26E-04    0.43E-04    0.55E-07
   2      8    11.527     4.652    0.22E-03    0.72E-04    0.47E-07
 Optimization of the real space projectors (new method)

 maximal supplied QI-value         = 18.90
 optimisation between [QCUT,QGAM] = [ 11.53, 23.24] = [ 37.21,151.29] Ry 
 Optimized for a Real-space Cutoff    1.36 Angstroem

   l    n(q)    QCUT    max X(q) W(low)/X(q) W(high)/X(q)  e(spline) 
   1      9    11.527     2.836    0.16E-04    0.30E-04    0.95E-07
   1      9    11.527     4.023    0.73E-04    0.81E-04    0.21E-06
   2      9    11.527    73.368    0.15E-03    0.29E-03    0.28E-06
   2      9    11.527    69.010    0.15E-03    0.29E-03    0.29E-06
   0      9    11.527    54.797    0.43E-04    0.28E-04    0.85E-07
   0      9    11.527    24.266    0.33E-04    0.24E-04    0.75E-07
  PAW_PBE Gd 23Dec2003                  :
 energy of atom  1       EATOM=-3047.6032
 kinetic energy error for atom=    0.0019 (will be added to EATOM!!)
  PAW_PBE Mg_pv 13Apr2007               :
 energy of atom  2       EATOM=-1056.7344
 kinetic energy error for atom=    0.0340 (will be added to EATOM!!)
  PAW_PBE Ni_pv 06Sep2000               :
 energy of atom  3       EATOM=-3501.1230
 kinetic energy error for atom=    0.0575 (will be added to EATOM!!)
 
 
 POSCAR: Gd1 Mg3 Ni8
  positions in direct lattice
  No initial velocities read in
 exchange correlation table for  LEXCH =        8
   RHO(1)=    0.500       N(1)  =     2000
   RHO(2)=  100.500       N(2)  =     4000

 VTST: version 4.2, (08/11/21)

 CHAIN: initializing optimizer
 
 OPT: Using VASP Dynamics algorithm
 CHAIN: Read ICHAIN             0
 
 POSCAR: Gd1 Mg3 Ni8
  positions in direct lattice
  No initial velocities read in
 


--------------------------------------------------------------------------------------------------------


 ion  position               nearest neighbor table
   1  0.000  0.000  0.000-  10 2.87  10 2.87  10 2.87  11 2.88  11 2.88   7 2.88   5 2.88   5 2.88
                             7 2.88  12 2.90   6 2.90   8 2.90   4 3.03   4 3.03   4 3.03
   2  0.500  0.500  0.500-
   3  0.129  0.129  0.129-
   4  0.621  0.621  0.621-   1 3.03   1 3.03   1 3.03
   5  0.564  0.065  0.564-   9 2.41   7 2.44  11 2.44   7 2.45  11 2.45  10 2.48   1 2.88   1 2.88

   6  0.063  0.558  0.063-   9 2.42   8 2.42  12 2.42  10 2.45   8 2.47  12 2.47   1 2.90
   7  0.065  0.564  0.564-   9 2.41   5 2.44  11 2.44   5 2.45  11 2.45  10 2.48   1 2.88   1 2.88

   8  0.558  0.063  0.063-   9 2.42   6 2.42  12 2.42  10 2.45   6 2.47  12 2.47   1 2.90
   9  0.813  0.813  0.813-   7 2.41   5 2.41  11 2.41   8 2.42   6 2.42  12 2.42
  10  0.312  0.312  0.312-   6 2.45   8 2.45  12 2.45   5 2.48   7 2.48  11 2.48   1 2.87   1 2.87
                             1 2.87
  11  0.564  0.564  0.065-   9 2.41   7 2.44   5 2.44   5 2.45   7 2.45  10 2.48   1 2.88   1 2.88

  12  0.063  0.063  0.558-   9 2.42   8 2.42   6 2.42  10 2.45   6 2.47   8 2.47   1 2.90
 
  LATTYP: Found a trigonal (rhomboedric) cell.
 ALAT       =     8.4395562865
 COS(alpha) =     0.8323523483
  
  Lattice vectors:
  
 A1 = (   8.0780980000,  -2.4434490000,   0.0000000000)
 A2 = (   8.0780980000,   2.4434490000,   0.0000000000)
 A3 = (   7.3390070000,   0.0000000000,   4.1671430000)


Analysis of symmetry for initial positions (statically):
=====================================================================
 Subroutine PRICEL returns:
 Original cell was already a primitive cell.
 

 Routine SETGRP: Setting up the symmetry group for a 
 trigonal (rhombohedral) supercell.


 Subroutine GETGRP returns: Found  6 space group operations
 (whereof  6 operations were pure point group operations)
 out of a pool of 12 trial point group operations.


The static configuration has the point symmetry C_3v.


Analysis of symmetry for dynamics (positions and initial velocities):
=====================================================================
 Subroutine PRICEL returns:
 Original cell was already a primitive cell.
 

 Routine SETGRP: Setting up the symmetry group for a 
 trigonal (rhombohedral) supercell.


 Subroutine GETGRP returns: Found  6 space group operations
 (whereof  6 operations were pure point group operations)
 out of a pool of 12 trial point group operations.


The dynamic configuration has the point symmetry C_3v.


Analysis of structural, dynamic, and magnetic symmetry:
=====================================================================
 Subroutine PRICEL returns:
 Original cell was already a primitive cell.
 

 Routine SETGRP: Setting up the symmetry group for a 
 trigonal (rhombohedral) supercell.


 Subroutine GETGRP returns: Found  6 space group operations
 (whereof  6 operations were pure point group operations)
 out of a pool of 12 trial point group operations.


The overall configuration has the point symmetry C_3v.


 Subroutine INISYM returns: Found  6 space group operations
 (whereof  6 operations are pure point group operations),
 and found     1 'primitive' translations


----------------------------------------------------------------------------------------

                                     Primitive cell                                     

  volume of cell :     164.5056

  direct lattice vectors                    reciprocal lattice vectors
     8.078098000 -2.443449000  0.000000000     0.061895758 -0.204628785 -0.109008355
     8.078098000  2.443449000  0.000000000     0.061895758  0.204628785 -0.109008355
     7.339007000  0.000000000  4.167143000    -0.000000000  0.000000000  0.239972566

  length of vectors
     8.439556287  8.439556287  8.439555944     0.239972594  0.239972594  0.239972566

  position of ions in fractional coordinates (direct lattice)
     0.000428000  0.000428000  0.000428000
     0.499651000  0.499651000  0.499651000
     0.128507000  0.128507000  0.128507000
     0.620653000  0.620653000  0.620653000
     0.563753000  0.065203000  0.563753000
     0.062828000  0.557784000  0.062828000
     0.065203000  0.563753000  0.563753000
     0.557784000  0.062828000  0.062828000
     0.812626000  0.812626000  0.812626000
     0.311984000  0.311984000  0.311984000
     0.563753000  0.563753000  0.065203000
     0.062828000  0.062828000  0.557784000

  ion indices of the primitive-cell ions
   primitive index   ion index
                 1           1
                 2           2
                 3           3
                 4           4
                 5           5
                 6           6
                 7           7
                 8           8
                 9           9
                10          10
                11          11
                12          12

----------------------------------------------------------------------------------------

 
 
 KPOINTS: Kpoints from vasprun.xml                

Automatic generation of k-mesh.
 Grid dimensions read from file:
 generate k-points for:    5    5    5

 Generating k-lattice:

  Cartesian coordinates                     Fractional coordinates (reciprocal lattice)
     0.012379152 -0.040925757 -0.021801671     0.200000000  0.000000000  0.000000000
     0.012379152  0.040925757 -0.021801671     0.000000000  0.200000000  0.000000000
    -0.000000000  0.000000000  0.047994513     0.000000000  0.000000000  0.200000000

  Length of vectors
     0.047994519  0.047994519  0.047994513

  Shift w.r.t. Gamma in fractional coordinates (k-lattice)
     0.000000000  0.000000000  0.000000000

 TETIRR: Found     65 inequivalent tetrahedra from      750
 
 Subroutine IBZKPT returns following result:
 ===========================================
 
 Found     19 irreducible k-points:
 
 Following reciprocal coordinates:
            Coordinates               Weight
  0.000000  0.000000  0.000000      1.000000
  0.200000  0.000000  0.000000      6.000000
  0.400000  0.000000  0.000000      6.000000
  0.200000  0.200000  0.000000      6.000000
  0.400000  0.200000  0.000000     12.000000
 -0.400000  0.200000  0.000000     12.000000
 -0.200000  0.200000  0.000000      6.000000
  0.400000  0.400000  0.000000      6.000000
 -0.400000  0.400000  0.000000      6.000000
  0.200000  0.200000  0.200000      2.000000
  0.400000  0.200000  0.200000      6.000000
 -0.400000  0.200000  0.200000      6.000000
 -0.200000  0.200000  0.200000      6.000000
  0.400000  0.400000  0.200000      6.000000
 -0.400000  0.400000  0.200000     12.000000
 -0.200000  0.400000  0.200000     12.000000
 -0.400000 -0.400000  0.200000      6.000000
  0.400000  0.400000  0.400000      2.000000
 -0.400000  0.400000  0.400000      6.000000
 
 Following cartesian coordinates:
            Coordinates               Weight
  0.000000  0.000000  0.000000      1.000000
  0.012379 -0.040926 -0.021802      6.000000
  0.024758 -0.081852 -0.043603      6.000000
  0.024758  0.000000 -0.043603      6.000000
  0.037137 -0.040926 -0.065405     12.000000
 -0.012379  0.122777  0.021802     12.000000
  0.000000  0.081852  0.000000      6.000000
  0.049517  0.000000 -0.087207      6.000000
  0.000000  0.163703  0.000000      6.000000
  0.024758  0.000000  0.004391      2.000000
  0.037137 -0.040926 -0.017410      6.000000
 -0.012379  0.122777  0.069796      6.000000
  0.000000  0.081852  0.047995      6.000000
  0.049517  0.000000 -0.039212      6.000000
  0.000000  0.163703  0.047995     12.000000
  0.012379  0.122777  0.026193     12.000000
 -0.049517  0.000000  0.135201      6.000000
  0.049517  0.000000  0.008782      2.000000
  0.000000  0.163703  0.095989      6.000000
 


--------------------------------------------------------------------------------------------------------




 Dimension of arrays:
   k-points           NKPTS =     19   k-points in BZ     NKDIM =     19   number of bands    NBANDS=    128
   number of dos      NEDOS =    301   number of ions     NIONS =     12
   non local maximal  LDIM  =      8   non local SUM 2l+1 LMDIM =     32
   total plane-waves  NPLWV = 262144
   max r-space proj   IRMAX =  28810   max aug-charges    IRDMAX= 754249
   dimension x,y,z NGX =    64 NGY =   64 NGZ =   64
   dimension x,y,z NGXF=   128 NGYF=  128 NGZF=  128
   support grid    NGXF=   256 NGYF=  256 NGZF=  256
   ions per type =               1   3   8
   NGX,Y,Z   is equivalent  to a cutoff of  12.61, 12.61, 12.61 a.u.
   NGXF,Y,Z  is equivalent  to a cutoff of  25.21, 25.21, 25.21 a.u.

 SYSTEM =  unknown system                          
 POSCAR =  Gd1 Mg3 Ni8                             

 Startparameter for this run:
   NWRITE =      2    write-flag & timer
   PREC   = accura    normal or accurate (medium, high low for compatibility)
   ISTART =      0    job   : 0-new  1-cont  2-samecut
   ICHARG =      0    charge: 1-file 2-atom 10-const
   ISPIN  =      2    spin polarized calculation?
   LNONCOLLINEAR =      F non collinear calculations
   LSORBIT =      F    spin-orbit coupling
   INIWAV =      1    electr: 0-lowe 1-rand  2-diag
   LASPH  =      T    aspherical Exc in radial PAW
 Electronic Relaxation 1
   ENCUT  =  520.0 eV  38.22 Ry    6.18 a.u.  15.69 15.69 15.69*2*pi/ulx,y,z
   ENINI  =  520.0     initial cutoff
   ENAUG  =  758.8 eV  augmentation charge cutoff
   NELM   =   1000;   NELMIN=  2; NELMDL= -5     # of ELM steps 
   EDIFF  = 0.6E-03   stopping-criterion for ELM
   LREAL  =      T    real-space projection
   NLSPLINE    = F    spline interpolate recip. space projectors
   LCOMPAT=      F    compatible to vasp.4.4
   GGA_COMPAT  = T    GGA compatible to vasp.4.4-vasp.4.6
   LMAXPAW     = -100 max onsite density
   LMAXMIX     =    2 max onsite mixed and CHGCAR
   VOSKOWN=      0    Vosko Wilk Nusair interpolation
   ROPT   =   -0.00025  -0.00025  -0.00025
 Ionic relaxation
   EDIFFG = 0.6E-02   stopping-criterion for IOM
   NSW    =      0    number of steps for IOM
   NBLOCK =      1;   KBLOCK =      1    inner block; outer block 
   IBRION =     -1    ionic relax: 0-MD 1-quasi-New 2-CG
   NFREE  =      0    steps in history (QN), initial steepest desc. (CG)
   ISIF   =      3    stress and relaxation
   IWAVPR =     10    prediction:  0-non 1-charg 2-wave 3-comb
   ISYM   =      2    0-nonsym 1-usesym 2-fastsym
   LCORR  =      T    Harris-Foulkes like correction to forces

   POTIM  = 0.5000    time-step for ionic-motion
   TEIN   =    0.0    initial temperature
   TEBEG  =    0.0;   TEEND  =   0.0 temperature during run
   SMASS  =  -3.00    Nose mass-parameter (am)
   estimated Nose-frequenzy (Omega)   =  0.10E-29 period in steps = 0.13E+47 mass=  -0.163E-26a.u.
   SCALEE = 1.0000    scale energy and forces
   NPACO  =    256;   APACO  = 10.0  distance and # of slots for P.C.
   PSTRESS=    0.0 pullay stress

  Mass of Ions in am
   POMASS = 157.25 24.30 58.69
  Ionic Valenz
   ZVAL   =  18.00  8.00 16.00
  Atomic Wigner-Seitz radii
   RWIGS  =  -1.00 -1.00 -1.00
  virtual crystal weights 
   VCA    =   1.00  1.00  1.00
   NELECT =     170.0000    total number of electrons
   NUPDOWN=      -1.0000    fix difference up-down

 DOS related values:
   EMIN   =  10.00;   EMAX   =-10.00  energy-range for DOS
   EFERMI =   0.00
   ISMEAR =    -5;   SIGMA  =   0.05  broadening in eV -4-tet -1-fermi 0-gaus

 Electronic relaxation 2 (details)
   IALGO  =     38    algorithm
   LDIAG  =      T    sub-space diagonalisation (order eigenvalues)
   LSUBROT=      F    optimize rotation matrix (better conditioning)
   TURBO    =      0    0=normal 1=particle mesh
   IRESTART =      0    0=no restart 2=restart with 2 vectors
   NREBOOT  =      0    no. of reboots
   NMIN     =      0    reboot dimension
   EREF     =   0.00    reference energy to select bands
   IMIX   =      4    mixing-type and parameters
     AMIX     =   0.40;   BMIX     =  1.00
     AMIX_MAG =   1.60;   BMIX_MAG =  1.00
     AMIN     =   0.10
     WC   =   100.;   INIMIX=   1;  MIXPRE=   1;  MAXMIX= -45

 Intra band minimization:
   WEIMIN = 0.0000     energy-eigenvalue tresh-hold
   EBREAK =  0.12E-05  absolut break condition
   DEPER  =   0.30     relativ break condition  

   TIME   =   0.40     timestep for ELM

  volume/ion in A,a.u.               =      13.71        92.51
  Fermi-wavevector in a.u.,A,eV,Ry     =   1.655125  3.127733 37.272340  2.739440
  Thomas-Fermi vector in A             =   2.743275
 
 Write flags
   LWAVE        =      F    write WAVECAR
   LDOWNSAMPLE  =      F    k-point downsampling of WAVECAR
   LCHARG       =      T    write CHGCAR
   LVTOT        =      F    write LOCPOT, total local potential
   LVHAR        =      T    write LOCPOT, Hartree potential only
   LELF         =      T    write electronic localiz. function (ELF)
   LORBIT       =     11    0 simple, 1 ext, 2 COOP (PROOUT), +10 PAW based schemes


 Dipole corrections
   LMONO  =      F    monopole corrections only (constant potential shift)
   LDIPOL =      F    correct potential (dipole corrections)
   IDIPOL =      0    1-x, 2-y, 3-z, 4-all directions 
   EPSILON=  1.0000000 bulk dielectric constant

 Exchange correlation treatment:
   GGA     =    --    GGA type
   LEXCH   =     8    internal setting for exchange type
   LIBXC   =     F    Libxc                    
   VOSKOWN =     0    Vosko Wilk Nusair interpolation
   LHFCALC =     F    Hartree Fock is set to
   LHFONE  =     F    Hartree Fock one center treatment
   AEXX    =    0.0000 exact exchange contribution

 Linear response parameters
   LEPSILON=     F    determine dielectric tensor
   LRPA    =     F    only Hartree local field effects (RPA)
   LNABLA  =     F    use nabla operator in PAW spheres
   LVEL    =     F    velocity operator in full k-point grid
   CSHIFT  =0.1000    complex shift for real part using Kramers Kronig
   OMEGAMAX=  -1.0    maximum frequency
   DEG_THRESHOLD= 0.2000000E-02 threshold for treating states as degnerate
   RTIME   =   -0.100 relaxation time in fs
  (WPLASMAI=    0.000 imaginary part of plasma frequency in eV, 0.658/RTIME)
   DFIELD  = 0.0000000 0.0000000 0.0000000 field for delta impulse in time
 
  Optional k-point grid parameters
   LKPOINTS_OPT  =     F    use optional k-point grid
   KPOINTS_OPT_MODE=     1    mode for optional k-point grid
 
 Orbital magnetization related:
   ORBITALMAG=     F  switch on orbital magnetization
   LCHIMAG   =     F  perturbation theory with respect to B field
   DQ        =  0.001000  dq finite difference perturbation B field
   LLRAUG    =     F  two centre corrections for induced B field



--------------------------------------------------------------------------------------------------------


 Static calculation
 charge density and potential will be updated during run
 spin polarized calculation
 Variant of blocked Davidson
 Davidson routine will perform the subspace rotation
 perform sub-space diagonalisation
    after iterative eigenvector-optimisation
 modified Broyden-mixing scheme, WC =      100.0
 initial mixing is a Kerker type mixing with AMIX =  0.4000 and BMIX =      1.0000
 Hartree-type preconditioning will be used
 using additional bands            43
 real space projection scheme for non local part
 use partial core corrections
 calculate Harris-corrections to forces 
   (improved forces if not selfconsistent)
 use gradient corrections 
 use of overlap-Matrix (Vanderbilt PP)
 Fermi weights with tetrahedron method with Bloechl corrections


--------------------------------------------------------------------------------------------------------


  energy-cutoff  :      520.00
  volume of cell :      164.51
      direct lattice vectors                 reciprocal lattice vectors
     8.078098000 -2.443449000  0.000000000     0.061895758 -0.204628785 -0.109008355
     8.078098000  2.443449000  0.000000000     0.061895758  0.204628785 -0.109008355
     7.339007000  0.000000000  4.167143000    -0.000000000  0.000000000  0.239972566

  length of vectors
     8.439556287  8.439556287  8.439555944     0.239972594  0.239972594  0.239972566


 
 k-points in units of 2pi/SCALE and weight: Kpoints from vasprun.xml                
   0.00000000 -0.00000000  0.00000000       0.008
   0.01237915 -0.04092576 -0.02180167       0.048
   0.02475830 -0.08185151 -0.04360334       0.048
   0.02475830  0.00000000 -0.04360334       0.048
   0.03713745 -0.04092576 -0.06540501       0.096
  -0.01237915  0.12277727  0.02180167       0.096
   0.00000000  0.08185151  0.00000000       0.048
   0.04951661  0.00000000 -0.08720668       0.048
   0.00000000  0.16370303  0.00000000       0.048
   0.02475830  0.00000000  0.00439117       0.016
   0.03713745 -0.04092576 -0.01741050       0.048
  -0.01237915  0.12277727  0.06979618       0.048
   0.00000000  0.08185151  0.04799451       0.048
   0.04951661  0.00000000 -0.03921217       0.048
   0.00000000  0.16370303  0.04799451       0.096
   0.01237915  0.12277727  0.02619284       0.096
  -0.04951661  0.00000000  0.13520120       0.048
   0.04951661  0.00000000  0.00878234       0.016
   0.00000000  0.16370303  0.09598903       0.048
 
 k-points in reciprocal lattice and weights: Kpoints from vasprun.xml                
   0.00000000  0.00000000  0.00000000       0.008
   0.20000000  0.00000000  0.00000000       0.048
   0.40000000  0.00000000  0.00000000       0.048
   0.20000000  0.20000000  0.00000000       0.048
   0.40000000  0.20000000  0.00000000       0.096
  -0.40000000  0.20000000  0.00000000       0.096
  -0.20000000  0.20000000  0.00000000       0.048
   0.40000000  0.40000000  0.00000000       0.048
  -0.40000000  0.40000000  0.00000000       0.048
   0.20000000  0.20000000  0.20000000       0.016
   0.40000000  0.20000000  0.20000000       0.048
  -0.40000000  0.20000000  0.20000000       0.048
  -0.20000000  0.20000000  0.20000000       0.048
   0.40000000  0.40000000  0.20000000       0.048
  -0.40000000  0.40000000  0.20000000       0.096
  -0.20000000  0.40000000  0.20000000       0.096
  -0.40000000 -0.40000000  0.20000000       0.048
   0.40000000  0.40000000  0.40000000       0.016
  -0.40000000  0.40000000  0.40000000       0.048
 
 position of ions in fractional coordinates (direct lattice) 
   0.00042800  0.00042800  0.00042800
   0.49965100  0.49965100  0.49965100
   0.12850700  0.12850700  0.12850700
   0.62065300  0.62065300  0.62065300
   0.56375300  0.06520300  0.56375300
   0.06282800  0.55778400  0.06282800
   0.06520300  0.56375300  0.56375300
   0.55778400  0.06282800  0.06282800
   0.81262600  0.81262600  0.81262600
   0.31198400  0.31198400  0.31198400
   0.56375300  0.56375300  0.06520300
   0.06282800  0.06282800  0.55778400
 
 position of ions in cartesian coordinates  (Angst):
   0.01005595  0.00000000  0.00178354
  11.73940167  0.00000000  2.08211717
   3.01929805  0.00000000  0.53550705
  14.58236823 -0.00000000  2.58634980
   9.21815542 -1.21818150  2.34923937
   5.47445969  1.20939974  0.26181326
   9.21815542  1.21818150  2.34923937
   5.47445969 -1.20939974  0.26181326
  19.09281283 -0.00000000  3.38632875
   7.33012741 -0.00000000  1.30008194
   9.58662924  0.00000000  0.27171023
   5.10864216  0.00000000  2.32436569
 


--------------------------------------------------------------------------------------------------------


 k-point   1 :   0.0000 0.0000 0.0000  plane waves:    4439
 k-point   2 :   0.2000 0.0000 0.0000  plane waves:    4429
 k-point   3 :   0.4000 0.0000 0.0000  plane waves:    4435
 k-point   4 :   0.2000 0.2000 0.0000  plane waves:    4421
 k-point   5 :   0.4000 0.2000 0.0000  plane waves:    4429
 k-point   6 :  -0.4000 0.2000 0.0000  plane waves:    4447
 k-point   7 :  -0.2000 0.2000 0.0000  plane waves:    4429
 k-point   8 :   0.4000 0.4000 0.0000  plane waves:    4425
 k-point   9 :  -0.4000 0.4000 0.0000  plane waves:    4443
 k-point  10 :   0.2000 0.2000 0.2000  plane waves:    4400
 k-point  11 :   0.4000 0.2000 0.2000  plane waves:    4434
 k-point  12 :  -0.4000 0.2000 0.2000  plane waves:    4436
 k-point  13 :  -0.2000 0.2000 0.2000  plane waves:    4436
 k-point  14 :   0.4000 0.4000 0.2000  plane waves:    4418
 k-point  15 :  -0.4000 0.4000 0.2000  plane waves:    4423
 k-point  16 :  -0.2000 0.4000 0.2000  plane waves:    4438
 k-point  17 :  -0.4000-0.4000 0.2000  plane waves:    4428
 k-point  18 :   0.4000 0.4000 0.4000  plane waves:    4410
 k-point  19 :  -0.4000 0.4000 0.4000  plane waves:    4420

 maximum and minimum number of plane-waves per node :      4447     4400

 maximum number of plane-waves:      4447
 maximum index in each direction: 
   IXMAX=   16   IYMAX=   16   IZMAX=   15
   IXMIN=  -16   IYMIN=  -16   IZMIN=  -16


 serial   3D FFT for wavefunctions
 parallel 3D FFT for charge:
    minimum data exchange during FFTs selected (reduces bandwidth)


 total amount of memory used by VASP MPI-rank0   307016. kBytes
=======================================================================

   base      :      30000. kBytes
   nonlr-proj:      39223. kBytes
   fftplans  :      78043. kBytes
   grid      :      67829. kBytes
   one-center:       1179. kBytes
   wavefun   :      90742. kBytes
 
     INWAV:  cpu time      0.0001: real time      0.0001
 Broyden mixing: mesh for mixing (old mesh)
   NGX = 31   NGY = 31   NGZ = 31
  (NGX  =128   NGY  =128   NGZ  =128)
  gives a total of  29791 points

 charge density for first step will be calculated from the start-wavefunctions


--------------------------------------------------------------------------------------------------------


 Maximum index for non-local projection operator         27861
 Maximum index for augmentation-charges        182973 (set IRDMAX)


--------------------------------------------------------------------------------------------------------


 initial charge from wavefunction
 First call to EWALD:  gamma=   0.323
 Maximum number of real-space cells 3x 3x 3
 Maximum number of reciprocal cells 4x 4x 4

    FEWALD:  cpu time      0.0011: real time      0.0011


--------------------------------------- Iteration      1(   1)  ---------------------------------------


    POTLOK:  cpu time      0.1232: real time      0.1761
    SETDIJ:  cpu time      2.1576: real time      2.1587
     EDDAV:  cpu time      9.5835: real time      9.5925
 BZINTS: Fermi energy:    4.325676;  170.000000 electrons
         Band energy:-0.280954E+05;  BLOECHL correction:   -1.304517
       DOS:  cpu time      0.0619: real time      0.0619
    --------------------------------------------
      LOOP:  cpu time     11.9262: real time     11.9892

 eigenvalue-minimisations  : 16016
 total energy-change (2. order) :-0.1419438E+05  (-0.3216736E+05)
 number of electron     170.0000001 magnetization      -0.0000000
 augmentation part       14.7938767 magnetization      -0.0301923

 Free energy of the ion-electron system (eV)
  ---------------------------------------------------
  alpha Z        PSCENC =      1414.42802060
  Ewald energy   TEWEN  =    -20937.35936853
  -Hartree energ DENC   =     -1073.82956052
  -exchange      EXHF   =         0.00000000
  -V(xc)+E(xc)   XCENC  =       527.73536026
  PAW double counting   =    373207.96432039  -373464.15435275
  entropy T*S    EENTRO =         0.00000000
  eigenvalues    EBANDS =    -28095.38967214
  atomic energy  EATOM  =     34226.22651024
  Solvation  Ediel_sol  =         0.00000000
  ---------------------------------------------------
  free energy    TOTEN  =    -14194.37874245 eV

  energy without entropy =   -14194.37874245  energy(sigma->0) =   -14194.37874245


--------------------------------------------------------------------------------------------------------




--------------------------------------- Iteration      1(   2)  ---------------------------------------


     EDDAV:  cpu time     10.6885: real time     10.6952
 BZINTS: Fermi energy:  -52.353273;  170.000000 electrons
         Band energy:-0.326603E+05;  BLOECHL correction:   -0.166137
       DOS:  cpu time      0.0558: real time      0.0558
    --------------------------------------------
      LOOP:  cpu time     10.7443: real time     10.7510

 eigenvalue-minimisations  : 18264
 total energy-change (2. order) :-0.4564897E+04  (-0.4276443E+04)
 number of electron     170.0000001 magnetization      -0.0000000
 augmentation part       14.7938767 magnetization      -0.0301923

 Free energy of the ion-electron system (eV)
  ---------------------------------------------------
  alpha Z        PSCENC =      1414.42802060
  Ewald energy   TEWEN  =    -20937.35936853
  -Hartree energ DENC   =     -1073.82956052
  -exchange      EXHF   =         0.00000000
  -V(xc)+E(xc)   XCENC  =       527.73536026
  PAW double counting   =    373207.96432039  -373464.15435275
  entropy T*S    EENTRO =         0.00000000
  eigenvalues    EBANDS =    -32660.28708181
  atomic energy  EATOM  =     34226.22651024
  Solvation  Ediel_sol  =         0.00000000
  ---------------------------------------------------
  free energy    TOTEN  =    -18759.27615211 eV

  energy without entropy =   -18759.27615211  energy(sigma->0) =   -18759.27615211


--------------------------------------------------------------------------------------------------------




--------------------------------------- Iteration      1(   3)  ---------------------------------------


     EDDAV:  cpu time     11.3080: real time     11.3156
 BZINTS: Fermi energy:  -60.838245;  170.000000 electrons
         Band energy:-0.330870E+05;  BLOECHL correction:   -0.000000
       DOS:  cpu time      0.0347: real time      0.0348
    --------------------------------------------
      LOOP:  cpu time     11.3427: real time     11.3504

 eigenvalue-minimisations  : 19424
 total energy-change (2. order) :-0.4267337E+03  (-0.4215578E+03)
 number of electron     170.0000001 magnetization      -0.0000000
 augmentation part       14.7938767 magnetization      -0.0301923

 Free energy of the ion-electron system (eV)
  ---------------------------------------------------
  alpha Z        PSCENC =      1414.42802060
  Ewald energy   TEWEN  =    -20937.35936853
  -Hartree energ DENC   =     -1073.82956052
  -exchange      EXHF   =         0.00000000
  -V(xc)+E(xc)   XCENC  =       527.73536026
  PAW double counting   =    373207.96432039  -373464.15435275
  entropy T*S    EENTRO =         0.00000000
  eigenvalues    EBANDS =    -33087.02073505
  atomic energy  EATOM  =     34226.22651024
  Solvation  Ediel_sol  =         0.00000000
  ---------------------------------------------------
  free energy    TOTEN  =    -19186.00980535 eV

  energy without entropy =   -19186.00980535  energy(sigma->0) =   -19186.00980535


--------------------------------------------------------------------------------------------------------




--------------------------------------- Iteration      1(   4)  ---------------------------------------


     EDDAV:  cpu time     10.6167: real time     10.6243
 BZINTS: Fermi energy:  -61.247221;  170.000000 electrons
         Band energy:-0.331013E+05;  BLOECHL correction:   -0.000000
       DOS:  cpu time      0.0342: real time      0.0342
    --------------------------------------------
      LOOP:  cpu time     10.6509: real time     10.6585

 eigenvalue-minimisations  : 18008
 total energy-change (2. order) :-0.1424745E+02  (-0.1421830E+02)
 number of electron     170.0000001 magnetization      -0.0000000
 augmentation part       14.7938767 magnetization      -0.0301923

 Free energy of the ion-electron system (eV)
  ---------------------------------------------------
  alpha Z        PSCENC =      1414.42802060
  Ewald energy   TEWEN  =    -20937.35936853
  -Hartree energ DENC   =     -1073.82956052
  -exchange      EXHF   =         0.00000000
  -V(xc)+E(xc)   XCENC  =       527.73536026
  PAW double counting   =    373207.96432039  -373464.15435275
  entropy T*S    EENTRO =         0.00000000
  eigenvalues    EBANDS =    -33101.26818500
  atomic energy  EATOM  =     34226.22651024
  Solvation  Ediel_sol  =         0.00000000
  ---------------------------------------------------
  free energy    TOTEN  =    -19200.25725530 eV

  energy without entropy =   -19200.25725530  energy(sigma->0) =   -19200.25725530


--------------------------------------------------------------------------------------------------------




--------------------------------------- Iteration      1(   5)  ---------------------------------------


     EDDAV:  cpu time      9.5043: real time      9.5112
 BZINTS: Fermi energy:  -61.258154;  170.000000 electrons
         Band energy:-0.331025E+05;  BLOECHL correction:   -0.000000
       DOS:  cpu time      0.0326: real time      0.0327
    CHARGE:  cpu time      0.4619: real time      0.4621
    MIXING:  cpu time      0.0069: real time      0.0069
    --------------------------------------------
      LOOP:  cpu time     10.0057: real time     10.0129

 eigenvalue-minimisations  : 15784
 total energy-change (2. order) :-0.1185131E+01  (-0.1185051E+01)
 number of electron     170.0000006 magnetization      -0.0000000
 augmentation part      121.0160298 magnetization      -0.0002922

 Broyden mixing:
  rms(total) = 0.30509E+03    rms(broyden)= 0.30509E+03
  rms(prec ) = 0.31076E+03
  weight for this iteration     100.00

 Free energy of the ion-electron system (eV)
  ---------------------------------------------------
  alpha Z        PSCENC =      1414.42802060
  Ewald energy   TEWEN  =    -20937.35936853
  -Hartree energ DENC   =     -1073.82956052
  -exchange      EXHF   =         0.00000000
  -V(xc)+E(xc)   XCENC  =       527.73536026
  PAW double counting   =    373207.96432039  -373464.15435275
  entropy T*S    EENTRO =         0.00000000
  eigenvalues    EBANDS =    -33102.45331643
  atomic energy  EATOM  =     34226.22651024
  Solvation  Ediel_sol  =         0.00000000
  ---------------------------------------------------
  free energy    TOTEN  =    -19201.44238674 eV

  energy without entropy =   -19201.44238674  energy(sigma->0) =   -19201.44238674


--------------------------------------------------------------------------------------------------------




--------------------------------------- Iteration      1(   6)  ---------------------------------------


    POTLOK:  cpu time      0.0120: real time      0.0134
    SETDIJ:  cpu time      2.1534: real time      2.1544
     EDDAV:  cpu time      8.3407: real time      8.3463
 BZINTS: Fermi energy:  -28.680505;  170.000000 electrons
         Band energy:-0.133631E+05;  BLOECHL correction:   -0.002065
       DOS:  cpu time      0.0671: real time      0.0672
    CHARGE:  cpu time      0.4706: real time      0.4712
    MIXING:  cpu time      0.0059: real time      0.0176
    --------------------------------------------
      LOOP:  cpu time     11.0497: real time     11.0701

 eigenvalue-minimisations  : 13336
 total energy-change (2. order) : 0.1568859E+05  (-0.3629764E+03)
 number of electron     170.0000007 magnetization       1.0103953
 augmentation part      121.6308068 magnetization       0.9908603

 Broyden mixing:
  rms(total) = 0.15213E+03    rms(broyden)= 0.15213E+03
  rms(prec ) = 0.15585E+03
  weight for this iteration     100.00

 eigenvalues of (default mixing * dielectric matrix)
  average eigenvalue GAMMA=   1.2520
  1.2520

 Free energy of the ion-electron system (eV)
  ---------------------------------------------------
  alpha Z        PSCENC =      1414.42802060
  Ewald energy   TEWEN  =    -20937.35936853
  -Hartree energ DENC   =     -4353.00767371
  -exchange      EXHF   =         0.00000000
  -V(xc)+E(xc)   XCENC  =       667.43027913
  PAW double counting   =  15172560.49184148-15173728.01436186
  entropy T*S    EENTRO =         0.00000000
  eigenvalues    EBANDS =    -13363.05044454
  atomic energy  EATOM  =     34226.22651024
  Solvation  Ediel_sol  =         0.00000000
  ---------------------------------------------------
  free energy    TOTEN  =     -3512.85519719 eV

  energy without entropy =    -3512.85519719  energy(sigma->0) =    -3512.85519719


--------------------------------------------------------------------------------------------------------




--------------------------------------- Iteration      1(   7)  ---------------------------------------


    POTLOK:  cpu time      0.0123: real time      0.0126
    SETDIJ:  cpu time      2.1516: real time      2.1527
     EDDAV:  cpu time      7.6514: real time      7.6557
 BZINTS: Fermi energy:   13.528931;  170.000000 electrons
         Band energy:-0.357897E+04;  BLOECHL correction:   -0.037563
       DOS:  cpu time      0.0569: real time      0.0569
    CHARGE:  cpu time      0.4630: real time      0.4633
    MIXING:  cpu time      0.0059: real time      0.0059
    --------------------------------------------
      LOOP:  cpu time     10.3411: real time     10.3472

 eigenvalue-minimisations  : 11968
 total energy-change (2. order) : 0.2099653E+04  (-0.2294072E+04)
 number of electron     169.9999982 magnetization       0.3060309
 augmentation part       72.0248529 magnetization       0.4275790

 Broyden mixing:
  rms(total) = 0.21414E+03    rms(broyden)= 0.21413E+03
  rms(prec ) = 0.21604E+03
  weight for this iteration     100.00

 eigenvalues of (default mixing * dielectric matrix)
  average eigenvalue GAMMA=   0.8175
  0.8175  0.8175

 Free energy of the ion-electron system (eV)
  ---------------------------------------------------
  alpha Z        PSCENC =      1414.42802060
  Ewald energy   TEWEN  =    -20937.35936853
  -Hartree energ DENC   =    -11120.97724328
  -exchange      EXHF   =         0.00000000
  -V(xc)+E(xc)   XCENC  =       918.71127465
  PAW double counting   =  42438805.44684000-42441140.70552895
  entropy T*S    EENTRO =         0.00000000
  eigenvalues    EBANDS =     -3578.97278836
  atomic energy  EATOM  =     34226.22651024
  Solvation  Ediel_sol  =         0.00000000
  ---------------------------------------------------
  free energy    TOTEN  =     -1413.20228362 eV

  energy without entropy =    -1413.20228362  energy(sigma->0) =    -1413.20228362


--------------------------------------------------------------------------------------------------------




--------------------------------------- Iteration      1(   8)  ---------------------------------------


    POTLOK:  cpu time      0.0117: real time      0.0127
    SETDIJ:  cpu time      2.1460: real time      2.1468
     EDDAV:  cpu time      8.1957: real time      8.2011
 BZINTS: Fermi energy:   -0.473253;  170.000000 electrons
         Band energy:-0.757903E+04;  BLOECHL correction:   -0.079201
       DOS:  cpu time      0.0603: real time      0.0603
    CHARGE:  cpu time      0.4622: real time      0.4625
    MIXING:  cpu time      0.0064: real time      0.0066
    --------------------------------------------
      LOOP:  cpu time     10.8824: real time     10.8900

 eigenvalue-minimisations  : 13152
 total energy-change (2. order) : 0.3022438E+03  (-0.7884548E+03)
 number of electron     169.9999998 magnetization       0.3024157
 augmentation part      114.8273394 magnetization       0.2609284

 Broyden mixing:
  rms(total) = 0.11685E+03    rms(broyden)= 0.11685E+03
  rms(prec ) = 0.11864E+03
  weight for this iteration     100.00

 eigenvalues of (default mixing * dielectric matrix)
  average eigenvalue GAMMA=   0.5757
  0.8331  0.8331  0.0611

 Free energy of the ion-electron system (eV)
  ---------------------------------------------------
  alpha Z        PSCENC =      1414.42802060
  Ewald energy   TEWEN  =    -20937.35936853
  -Hartree energ DENC   =     -7292.12052845
  -exchange      EXHF   =         0.00000000
  -V(xc)+E(xc)   XCENC  =       771.90034027
  PAW double counting   =  18308635.03077828-18310350.03685935
  entropy T*S    EENTRO =         0.00000000
  eigenvalues    EBANDS =     -7579.02738143
  atomic energy  EATOM  =     34226.22651024
  Solvation  Ediel_sol  =         0.00000000
  ---------------------------------------------------
  free energy    TOTEN  =     -1110.95848838 eV

  energy without entropy =    -1110.95848838  energy(sigma->0) =    -1110.95848838


--------------------------------------------------------------------------------------------------------




--------------------------------------- Iteration      1(   9)  ---------------------------------------


    POTLOK:  cpu time      0.0119: real time      0.0128
    SETDIJ:  cpu time      2.1594: real time      2.1615
     EDDAV:  cpu time     10.2753: real time     10.2837
 BZINTS: Fermi energy:   -1.377173;  170.000000 electrons
         Band energy:-0.830113E+04;  BLOECHL correction:   -0.187726
       DOS:  cpu time      0.0618: real time      0.0619
    CHARGE:  cpu time      0.4611: real time      0.4615
    MIXING:  cpu time      0.0068: real time      0.0068
    --------------------------------------------
      LOOP:  cpu time     12.9764: real time     12.9881

 eigenvalue-minimisations  : 17416
 total energy-change (2. order) :-0.4367134E+03  (-0.1488384E+03)
 number of electron     170.0000025 magnetization       0.3633703
 augmentation part      112.2149894 magnetization       0.5197220

 Broyden mixing:
  rms(total) = 0.12171E+03    rms(broyden)= 0.12171E+03
  rms(prec ) = 0.12424E+03
  weight for this iteration     100.00

 eigenvalues of (default mixing * dielectric matrix)
  average eigenvalue GAMMA=   0.4994
  0.8391  0.8391  0.1596  0.1596

 Free energy of the ion-electron system (eV)
  ---------------------------------------------------
  alpha Z        PSCENC =      1414.42802060
  Ewald energy   TEWEN  =    -20937.35936853
  -Hartree energ DENC   =     -7034.81617254
  -exchange      EXHF   =         0.00000000
  -V(xc)+E(xc)   XCENC  =       762.56685625
  PAW double counting   =  18805352.98137416-18807030.57083469
  entropy T*S    EENTRO =         0.00000000
  eigenvalues    EBANDS =     -8301.12823143
  atomic energy  EATOM  =     34226.22651024
  Solvation  Ediel_sol  =         0.00000000
  ---------------------------------------------------
  free energy    TOTEN  =     -1547.67184593 eV

  energy without entropy =    -1547.67184593  energy(sigma->0) =    -1547.67184593


--------------------------------------------------------------------------------------------------------




--------------------------------------- Iteration      1(  10)  ---------------------------------------


    POTLOK:  cpu time      0.0122: real time      0.0141
    SETDIJ:  cpu time      2.1582: real time      2.1596
     EDDAV:  cpu time     10.0210: real time     10.0268
 BZINTS: Fermi energy:   -2.430024;  170.000000 electrons
         Band energy:-0.780077E+04;  BLOECHL correction:   -0.038670
       DOS:  cpu time      0.0597: real time      0.0597
    CHARGE:  cpu time      0.4596: real time      0.4598
    MIXING:  cpu time      0.0076: real time      0.0076
    --------------------------------------------
      LOOP:  cpu time     12.7183: real time     12.7276

 eigenvalue-minimisations  : 16912
 total energy-change (2. order) : 0.1498746E+03  (-0.1664616E+02)
 number of electron     170.0000009 magnetization       0.4024635
 augmentation part      108.9836154 magnetization       0.2240396

 Broyden mixing:
  rms(total) = 0.11851E+03    rms(broyden)= 0.11851E+03
  rms(prec ) = 0.12126E+03
  weight for this iteration     100.00

 eigenvalues of (default mixing * dielectric matrix)
  average eigenvalue GAMMA=   0.4305
  0.8490  0.8490  0.2109  0.2109  0.0326

 Free energy of the ion-electron system (eV)
  ---------------------------------------------------
  alpha Z        PSCENC =      1414.42802060
  Ewald energy   TEWEN  =    -20937.35936853
  -Hartree energ DENC   =     -7335.97688208
  -exchange      EXHF   =         0.00000000
  -V(xc)+E(xc)   XCENC  =       774.81348072
  PAW double counting   =  19764782.78683188-19766521.94737856
  entropy T*S    EENTRO =         0.00000000
  eigenvalues    EBANDS =     -7800.76843135
  atomic energy  EATOM  =     34226.22651024
  Solvation  Ediel_sol  =         0.00000000
  ---------------------------------------------------
  free energy    TOTEN  =     -1397.79721708 eV

  energy without entropy =    -1397.79721708  energy(sigma->0) =    -1397.79721708


--------------------------------------------------------------------------------------------------------




--------------------------------------- Iteration      1(  11)  ---------------------------------------


    POTLOK:  cpu time      0.0125: real time      0.0129
    SETDIJ:  cpu time      2.1575: real time      2.1584
     EDDAV:  cpu time      9.2244: real time      9.2300
 BZINTS: Fermi energy:   -1.195831;  170.000000 electrons
         Band energy:-0.746151E+04;  BLOECHL correction:    0.000000
       DOS:  cpu time      0.0320: real time      0.0320
    CHARGE:  cpu time      0.4616: real time      0.4618
    MIXING:  cpu time      0.0081: real time      0.0081
    --------------------------------------------
      LOOP:  cpu time     11.8961: real time     11.9034

 eigenvalue-minimisations  : 15416
 total energy-change (2. order) : 0.9665770E+02  (-0.6122967E+01)
 number of electron     170.0000007 magnetization       0.4068052
 augmentation part      108.7777910 magnetization       0.3790150

 Broyden mixing:
  rms(total) = 0.14125E+03    rms(broyden)= 0.14125E+03
  rms(prec ) = 0.14343E+03
  weight for this iteration     100.00

 eigenvalues of (default mixing * dielectric matrix)
  average eigenvalue GAMMA=   0.3610
  0.8492  0.8492  0.2092  0.2092  0.0383  0.0108

 Free energy of the ion-electron system (eV)
  ---------------------------------------------------
  alpha Z        PSCENC =      1414.42802060
  Ewald energy   TEWEN  =    -20937.35936853
  -Hartree energ DENC   =     -7549.33461476
  -exchange      EXHF   =         0.00000000
  -V(xc)+E(xc)   XCENC  =       783.39289945
  PAW double counting   =  20377434.65623577-20379211.64180980
  entropy T*S    EENTRO =         0.00000000
  eigenvalues    EBANDS =     -7461.50738965
  atomic energy  EATOM  =     34226.22651024
  Solvation  Ediel_sol  =         0.00000000
  ---------------------------------------------------
  free energy    TOTEN  =     -1301.13951668 eV

  energy without entropy =    -1301.13951668  energy(sigma->0) =    -1301.13951668


--------------------------------------------------------------------------------------------------------




--------------------------------------- Iteration      1(  12)  ---------------------------------------


    POTLOK:  cpu time      0.0118: real time      0.0130
    SETDIJ:  cpu time      2.1662: real time      2.1673
     EDDAV:  cpu time     10.0023: real time     10.0077
 BZINTS: Fermi energy:   -0.922525;  170.000000 electrons
         Band energy:-0.741877E+04;  BLOECHL correction:   -0.000000
       DOS:  cpu time      0.0354: real time      0.0354
    CHARGE:  cpu time      0.4625: real time      0.4628
    MIXING:  cpu time      0.0063: real time      0.0063
    --------------------------------------------
      LOOP:  cpu time     12.6845: real time     12.6925

 eigenvalue-minimisations  : 16896
 total energy-change (2. order) : 0.1253180E+02  (-0.3719050E+00)
 number of electron     170.0000005 magnetization       0.4226553
 augmentation part      108.7659209 magnetization       0.4043186

 Broyden mixing:
  rms(total) = 0.14412E+03    rms(broyden)= 0.14412E+03
  rms(prec ) = 0.14624E+03
  weight for this iteration     100.00

 eigenvalues of (default mixing * dielectric matrix)
  average eigenvalue GAMMA=   0.4016
  0.8585  0.8585  0.2924  0.2907  0.2907  0.1103  0.1103

 Free energy of the ion-electron system (eV)
  ---------------------------------------------------
  alpha Z        PSCENC =      1414.42802060
  Ewald energy   TEWEN  =    -20937.35936853
  -Hartree energ DENC   =     -7575.71069941
  -exchange      EXHF   =         0.00000000
  -V(xc)+E(xc)   XCENC  =       784.40914464
  PAW double counting   =  20457984.36267950-20459766.19800032
  entropy T*S    EENTRO =         0.00000000
  eigenvalues    EBANDS =     -7418.76600346
  atomic energy  EATOM  =     34226.22651024
  Solvation  Ediel_sol  =         0.00000000
  ---------------------------------------------------
  free energy    TOTEN  =     -1288.60771674 eV

  energy without entropy =    -1288.60771674  energy(sigma->0) =    -1288.60771674


--------------------------------------------------------------------------------------------------------




--------------------------------------- Iteration      1(  13)  ---------------------------------------


    POTLOK:  cpu time      0.0121: real time      0.0126
    SETDIJ:  cpu time      2.1645: real time      2.1655
     EDDAV:  cpu time      7.2623: real time      7.2663
 BZINTS: Fermi energy:   -0.929255;  170.000000 electrons
         Band energy:-0.745778E+04;  BLOECHL correction:    0.000000
       DOS:  cpu time      0.0325: real time      0.0325
    CHARGE:  cpu time      0.4628: real time      0.4632
    MIXING:  cpu time      0.0065: real time      0.0065
    --------------------------------------------
      LOOP:  cpu time      9.9407: real time      9.9467

 eigenvalue-minimisations  : 11128
 total energy-change (2. order) :-0.1313510E+02  (-0.4973064E-01)
 number of electron     170.0000005 magnetization       0.4128600
 augmentation part      108.9073346 magnetization       0.4034151

 Broyden mixing:
  rms(total) = 0.14563E+03    rms(broyden)= 0.14563E+03
  rms(prec ) = 0.14774E+03
  weight for this iteration     100.00

 eigenvalues of (default mixing * dielectric matrix)
  average eigenvalue GAMMA=   0.4397
  0.8648  0.8648  0.4423  0.4423  0.3052  0.3052  0.1812  0.1118

 Free energy of the ion-electron system (eV)
  ---------------------------------------------------
  alpha Z        PSCENC =      1414.42802060
  Ewald energy   TEWEN  =    -20937.35936853
  -Hartree energ DENC   =     -7555.58841485
  -exchange      EXHF   =         0.00000000
  -V(xc)+E(xc)   XCENC  =       783.47874914
  PAW double counting   =  20530379.14060640-20532154.29337078
  entropy T*S    EENTRO =         0.00000000
  eigenvalues    EBANDS =     -7457.77555310
  atomic energy  EATOM  =     34226.22651024
  Solvation  Ediel_sol  =         0.00000000
  ---------------------------------------------------
  free energy    TOTEN  =     -1301.74282086 eV

  energy without entropy =    -1301.74282086  energy(sigma->0) =    -1301.74282086


--------------------------------------------------------------------------------------------------------




--------------------------------------- Iteration      1(  14)  ---------------------------------------


    POTLOK:  cpu time      0.0118: real time      0.0130
    SETDIJ:  cpu time      2.1681: real time      2.1693
     EDDAV:  cpu time      8.7473: real time      8.7517
 BZINTS: Fermi energy:   -0.736628;  170.000000 electrons
         Band energy:-0.739958E+04;  BLOECHL correction:   -0.006365
       DOS:  cpu time      0.0604: real time      0.0604
    CHARGE:  cpu time      0.4620: real time      0.4625
    MIXING:  cpu time      0.0078: real time      0.0078
    --------------------------------------------
      LOOP:  cpu time     11.4574: real time     11.4648

 eigenvalue-minimisations  : 14360
 total energy-change (2. order) : 0.7976859E+01  (-0.9782652E+00)
 number of electron     170.0000006 magnetization       0.5621737
 augmentation part      108.8783634 magnetization      -0.3868454

 Broyden mixing:
  rms(total) = 0.13098E+03    rms(broyden)= 0.13098E+03
  rms(prec ) = 0.13325E+03
  weight for this iteration     100.00

 eigenvalues of (default mixing * dielectric matrix)
  average eigenvalue GAMMA=   0.3881
  0.8641  0.8641  0.4288  0.4288  0.3006  0.3006  0.1797  0.1118  0.0146

 Free energy of the ion-electron system (eV)
  ---------------------------------------------------
  alpha Z        PSCENC =      1414.42802060
  Ewald energy   TEWEN  =    -20937.35936853
  -Hartree energ DENC   =     -7599.54521488
  -exchange      EXHF   =         0.00000000
  -V(xc)+E(xc)   XCENC  =       785.55157438
  PAW double counting   =  20263664.92277626-20265448.41488570
  entropy T*S    EENTRO =         0.00000000
  eigenvalues    EBANDS =     -7399.57537373
  atomic energy  EATOM  =     34226.22651024
  Solvation  Ediel_sol  =         0.00000000
  ---------------------------------------------------
  free energy    TOTEN  =     -1293.76596136 eV

  energy without entropy =    -1293.76596136  energy(sigma->0) =    -1293.76596136


--------------------------------------------------------------------------------------------------------




--------------------------------------- Iteration      1(  15)  ---------------------------------------


    POTLOK:  cpu time      0.0123: real time      0.0128
    SETDIJ:  cpu time      2.1543: real time      2.1551
     EDDAV:  cpu time      7.6002: real time      7.6042
 BZINTS: Fermi energy:   -1.337087;  170.000000 electrons
         Band energy:-0.743202E+04;  BLOECHL correction:   -0.001234
       DOS:  cpu time      0.0613: real time      0.0613
    CHARGE:  cpu time      0.4578: real time      0.4580
    MIXING:  cpu time      0.0072: real time      0.0072
    --------------------------------------------
      LOOP:  cpu time     10.2930: real time     10.2986

 eigenvalue-minimisations  : 11880
 total energy-change (2. order) :-0.5021275E+02  (-0.3170218E+00)
 number of electron     170.0000005 magnetization       0.4218953
 augmentation part      108.7491144 magnetization      -2.6692224

 Broyden mixing:
  rms(total) = 0.13651E+03    rms(broyden)= 0.13651E+03
  rms(prec ) = 0.13876E+03
  weight for this iteration     100.00

 eigenvalues of (default mixing * dielectric matrix)
  average eigenvalue GAMMA=   0.4325
  0.8859  0.8859  0.5059  0.4497  0.4497  0.3089  0.3089  0.2108  0.2108  0.1081

 Free energy of the ion-electron system (eV)
  ---------------------------------------------------
  alpha Z        PSCENC =      1414.42802060
  Ewald energy   TEWEN  =    -20937.35936853
  -Hartree energ DENC   =     -7632.58453179
  -exchange      EXHF   =         0.00000000
  -V(xc)+E(xc)   XCENC  =       787.47452803
  PAW double counting   =  19538805.10103824-19540575.24853917
  entropy T*S    EENTRO =         0.00000000
  eigenvalues    EBANDS =     -7432.01636481
  atomic energy  EATOM  =     34226.22651024
  Solvation  Ediel_sol  =         0.00000000
  ---------------------------------------------------
  free energy    TOTEN  =     -1343.97870719 eV

  energy without entropy =    -1343.97870719  energy(sigma->0) =    -1343.97870719


--------------------------------------------------------------------------------------------------------




--------------------------------------- Iteration      1(  16)  ---------------------------------------


    POTLOK:  cpu time      0.0118: real time      0.0131
    SETDIJ:  cpu time      2.1522: real time      2.1531
     EDDAV:  cpu time      8.4543: real time      8.4599
 BZINTS: Fermi energy:   -0.701988;  170.000000 electrons
         Band energy:-0.738066E+04;  BLOECHL correction:   -0.030517
       DOS:  cpu time      0.0590: real time      0.0590
    CHARGE:  cpu time      0.4587: real time      0.4590
    MIXING:  cpu time      0.0071: real time      0.0071
    --------------------------------------------
      LOOP:  cpu time     11.1431: real time     11.1511

 eigenvalue-minimisations  : 13760
 total energy-change (2. order) :-0.8643165E+01  (-0.1960458E+01)
 number of electron     170.0000005 magnetization       0.8029133
 augmentation part      109.8317878 magnetization       0.5777091

 Broyden mixing:
  rms(total) = 0.14618E+03    rms(broyden)= 0.14618E+03
  rms(prec ) = 0.14815E+03
  weight for this iteration     100.00

 eigenvalues of (default mixing * dielectric matrix)
  average eigenvalue GAMMA=   0.4684
  0.9064  0.9064  0.5902  0.5902  0.4713  0.3804  0.3804  0.3082  0.3082  0.2022
  0.1085

 Free energy of the ion-electron system (eV)
  ---------------------------------------------------
  alpha Z        PSCENC =      1414.42802060
  Ewald energy   TEWEN  =    -20937.35936853
  -Hartree energ DENC   =     -7701.05082048
  -exchange      EXHF   =         0.00000000
  -V(xc)+E(xc)   XCENC  =       790.13092040
  PAW double counting   =  20114856.06106840-20116620.40320131
  entropy T*S    EENTRO =         0.00000000
  eigenvalues    EBANDS =     -7380.65500167
  atomic energy  EATOM  =     34226.22651024
  Solvation  Ediel_sol  =         0.00000000
  ---------------------------------------------------
  free energy    TOTEN  =     -1352.62187234 eV

  energy without entropy =    -1352.62187234  energy(sigma->0) =    -1352.62187234


--------------------------------------------------------------------------------------------------------




--------------------------------------- Iteration      1(  17)  ---------------------------------------


    POTLOK:  cpu time      0.0120: real time      0.0129
    SETDIJ:  cpu time      2.1488: real time      2.1499
     EDDAV:  cpu time      7.5073: real time      7.5115
 BZINTS: Fermi energy:    1.615525;  170.000000 electrons
         Band energy:-0.599216E+04;  BLOECHL correction:    0.000000
       DOS:  cpu time      0.0325: real time      0.0325
    CHARGE:  cpu time      0.4639: real time      0.4642
    MIXING:  cpu time      0.0062: real time      0.0062
    --------------------------------------------
      LOOP:  cpu time     10.1708: real time     10.1771

 eigenvalue-minimisations  : 11680
 total energy-change (2. order) : 0.1295149E+03  (-0.2843869E+02)
 number of electron     170.0000003 magnetization       1.4350640
 augmentation part      104.4065756 magnetization       1.4066207

 Broyden mixing:
  rms(total) = 0.17404E+03    rms(broyden)= 0.17404E+03
  rms(prec ) = 0.17577E+03
  weight for this iteration     100.00

 eigenvalues of (default mixing * dielectric matrix)
  average eigenvalue GAMMA=   0.5973
  1.2654  1.2654  0.7007  0.7007  0.6329  0.6329  0.4212  0.4506  0.4506  0.3175
  0.2215  0.1085

 Free energy of the ion-electron system (eV)
  ---------------------------------------------------
  alpha Z        PSCENC =      1414.42802060
  Ewald energy   TEWEN  =    -20937.35936853
  -Hartree energ DENC   =     -8922.93889606
  -exchange      EXHF   =         0.00000000
  -V(xc)+E(xc)   XCENC  =       841.98890909
  PAW double counting   =  19397233.52678626-19399086.82369148
  entropy T*S    EENTRO =         0.00000000
  eigenvalues    EBANDS =     -5992.15528523
  atomic energy  EATOM  =     34226.22651024
  Solvation  Ediel_sol  =         0.00000000
  ---------------------------------------------------
  free energy    TOTEN  =     -1223.10701511 eV

  energy without entropy =    -1223.10701511  energy(sigma->0) =    -1223.10701511


--------------------------------------------------------------------------------------------------------




--------------------------------------- Iteration      1(  18)  ---------------------------------------


    POTLOK:  cpu time      0.0119: real time      0.0128
    SETDIJ:  cpu time      2.1460: real time      2.1472
     EDDAV:  cpu time      7.1830: real time      7.1866
 BZINTS: Fermi energy:   22.269753;  170.000000 electrons
         Band energy:-0.946673E+03;  BLOECHL correction:   -0.060817
       DOS:  cpu time      0.0602: real time      0.0602
    CHARGE:  cpu time      0.4595: real time      0.4598
    MIXING:  cpu time      0.0074: real time      0.0074
    --------------------------------------------
      LOOP:  cpu time      9.8680: real time      9.8740

 eigenvalue-minimisations  : 11048
 total energy-change (2. order) :-0.2607230E+04  (-0.1500782E+04)
 number of electron     170.0000089 magnetization       1.1424970
 augmentation part       41.3711336 magnetization       0.8289970

 Broyden mixing:
  rms(total) = 0.21873E+03    rms(broyden)= 0.21873E+03
  rms(prec ) = 0.22225E+03
  weight for this iteration     100.00

 eigenvalues of (default mixing * dielectric matrix)
  average eigenvalue GAMMA=   0.5743
  1.2432  1.2432  0.4150  0.7250  0.7250  0.5542  0.5542  0.4554  0.4554  0.3837
  0.3837  0.2195  0.1085

 Free energy of the ion-electron system (eV)
  ---------------------------------------------------
  alpha Z        PSCENC =      1414.42802060
  Ewald energy   TEWEN  =    -20937.35936853
  -Hartree energ DENC   =    -16016.21132971
  -exchange      EXHF   =         0.00000000
  -V(xc)+E(xc)   XCENC  =      1155.80868716
  PAW double counting   =  15607486.06236077-15610212.61937365
  entropy T*S    EENTRO =         0.00000000
  eigenvalues    EBANDS =      -946.67264522
  atomic energy  EATOM  =     34226.22651024
  Solvation  Ediel_sol  =         0.00000000
  ---------------------------------------------------
  free energy    TOTEN  =     -3830.33713833 eV

  energy without entropy =    -3830.33713833  energy(sigma->0) =    -3830.33713833


--------------------------------------------------------------------------------------------------------




--------------------------------------- Iteration      1(  19)  ---------------------------------------


    POTLOK:  cpu time      0.0117: real time      0.0127
    SETDIJ:  cpu time      2.1387: real time      2.1395
     EDDAV:  cpu time      7.7748: real time      7.7796
 BZINTS: Fermi energy:    9.986585;  170.000000 electrons
         Band energy:-0.312441E+04;  BLOECHL correction:   -0.093610
       DOS:  cpu time      0.0646: real time      0.0651
    CHARGE:  cpu time      0.4644: real time      0.4646
    MIXING:  cpu time      0.0074: real time      0.0074
    --------------------------------------------
      LOOP:  cpu time     10.4616: real time     10.4690

 eigenvalue-minimisations  : 12336
 total energy-change (2. order) : 0.3068633E+04  (-0.3307471E+03)
 number of electron     170.0000000 magnetization       1.1482910
 augmentation part       79.3426072 magnetization       1.0089425

 Broyden mixing:
  rms(total) = 0.20773E+03    rms(broyden)= 0.20773E+03
  rms(prec ) = 0.20875E+03
  weight for this iteration     100.00

 eigenvalues of (default mixing * dielectric matrix)
  average eigenvalue GAMMA=   0.5733
  1.3909  1.3909  0.7337  0.7337  0.4138  0.5336  0.5336  0.4623  0.4623  0.3795
  0.3795  0.1085  0.2216  0.2829

 Free energy of the ion-electron system (eV)
  ---------------------------------------------------
  alpha Z        PSCENC =      1414.42802060
  Ewald energy   TEWEN  =    -20937.35936853
  -Hartree energ DENC   =    -11110.18721162
  -exchange      EXHF   =         0.00000000
  -V(xc)+E(xc)   XCENC  =       944.04514745
  PAW double counting   =  14915125.01365172-14917299.45785027
  entropy T*S    EENTRO =         0.00000000
  eigenvalues    EBANDS =     -3124.41315634
  atomic energy  EATOM  =     34226.22651024
  Solvation  Ediel_sol  =         0.00000000
  ---------------------------------------------------
[...]
 BZINTS: Fermi energy:-1223.746408;  170.000000 electrons
         Band energy:-0.773560E+08;  BLOECHL correction:-1360.831569
       DOS:  cpu time      0.0898: real time      0.0899
    CHARGE:  cpu time      0.4690: real time      0.4695
    MIXING:  cpu time      0.0151: real time      0.0151
    --------------------------------------------
      LOOP:  cpu time     14.7078: real time     14.7170

 eigenvalue-minimisations  : 19456
 total energy-change (2. order) : 0.7075410E+08  (-0.4691277E+07)
 number of electron     170.9004931 magnetization     -28.7665594
 augmentation part       57.4647942 magnetization     -29.5188893

 Broyden mixing:
  rms(total) = 0.18429E+03    rms(broyden)= 0.18429E+03
  rms(prec ) = 0.18449E+03
  weight for this iteration     100.00

 eigenvalues of (default mixing * dielectric matrix)
  average eigenvalue GAMMA=   0.6159
  2.6105  2.3033  1.9630  1.4579  1.2175  1.2175  0.9933  0.9933  1.1403  0.9464
  0.9464  0.7985  0.4469  0.4469  0.6709  0.6709  0.1176  0.1176  0.5112  0.5112
  0.1759  0.1759  0.0105  0.0105  0.0015  0.0316  0.0316  0.2927  0.2927  0.0898
  0.1597  0.1597  0.2831  0.2831  0.5881  0.5881  0.5880  0.4838  0.4838  0.4694
  0.4694  0.4087  0.3257

 Free energy of the ion-electron system (eV)
  ---------------------------------------------------
  alpha Z        PSCENC =      1414.42802060
  Ewald energy   TEWEN  =    -20937.35936853
  -Hartree energ DENC   =     -8927.13657497
  -exchange      EXHF   =         0.00000000
  -V(xc)+E(xc)   XCENC  =       762.76792652
  PAW double counting   =   1156221.09441879 -1157353.84013547
  entropy T*S    EENTRO =         0.00000000
  eigenvalues    EBANDS = -77356006.96589828
  atomic energy  EATOM  =     34226.22651024
  Solvation  Ediel_sol  =         0.00000000
  ---------------------------------------------------
  free energy    TOTEN  = -77350600.78510109 eV

  energy without entropy =-77350600.78510109  energy(sigma->0) =-77350600.78510109


--------------------------------------------------------------------------------------------------------




--------------------------------------- Iteration      1( 279)  ---------------------------------------


    POTLOK:  cpu time      0.0118: real time      0.0129
    SETDIJ:  cpu time      2.1478: real time      2.1500
     EDDAV:  cpu time     12.0092: real time     12.0154
 BZINTS: Fermi energy:-1261.579613;  170.000000 electrons
         Band energy:-0.534696E+08;  BLOECHL correction: -843.932454
       DOS:  cpu time      0.0935: real time      0.0936
    CHARGE:  cpu time      0.4629: real time      0.4631
    MIXING:  cpu time      0.0165: real time      0.0165
    --------------------------------------------
      LOOP:  cpu time     14.7417: real time     14.7514

 eigenvalue-minimisations  : 19456
 total energy-change (2. order) : 0.2388643E+08  (-0.2883065E+07)
 number of electron     170.8857303 magnetization     -29.3200215
 augmentation part       58.1533878 magnetization     -28.6964140

 Broyden mixing:
  rms(total) = 0.18357E+03    rms(broyden)= 0.18357E+03
  rms(prec ) = 0.18375E+03
  weight for this iteration     100.00

 eigenvalues of (default mixing * dielectric matrix)
  average eigenvalue GAMMA=   0.6181
  2.3829  2.3829  2.1102  1.4638  1.2061  1.2061  0.9882  0.9882  1.1641  0.9012
  0.9012  0.3979  0.3979  0.4690  0.4690  0.7235  0.6847  0.6847  0.6737  0.6106
  0.6106  0.0937  0.0937  0.0255  0.0255  0.0013  0.0099  0.0568  0.0760  0.1762
  0.1762  0.5987  0.4910  0.4910  0.2920  0.2920  0.4453  0.4453  0.4602  0.2901
  0.2901  0.3264  0.3264  0.2963

 Free energy of the ion-electron system (eV)
  ---------------------------------------------------
  alpha Z        PSCENC =      1414.42802060
  Ewald energy   TEWEN  =    -20937.35936853
  -Hartree energ DENC   =     -8920.89241567
  -exchange      EXHF   =         0.00000000
  -V(xc)+E(xc)   XCENC  =       753.50566388
  PAW double counting   =   1081435.98522326 -1082568.43810708
  entropy T*S    EENTRO =         0.00000000
  eigenvalues    EBANDS = -53469578.66700820
  atomic energy  EATOM  =     34226.22651024
  Solvation  Ediel_sol  =         0.00000000
  ---------------------------------------------------
  free energy    TOTEN  = -53464175.21148149 eV

  energy without entropy =-53464175.21148149  energy(sigma->0) =-53464175.21148149


--------------------------------------------------------------------------------------------------------




--------------------------------------- Iteration      1( 280)  ---------------------------------------


    POTLOK:  cpu time      0.0119: real time      0.0127
    SETDIJ:  cpu time      2.1409: real time      2.1421
     EDDAV:  cpu time     12.0034: real time     12.0116
 BZINTS: Fermi energy:-1389.180738;  170.000000 electrons
         Band energy:-0.354432E+08;  BLOECHL correction: -625.626486
       DOS:  cpu time      0.0849: real time      0.0850
    CHARGE:  cpu time      0.4639: real time      0.4642
    MIXING:  cpu time      0.0162: real time      0.0162
    --------------------------------------------
      LOOP:  cpu time     14.7212: real time     14.7317

 eigenvalue-minimisations  : 19456
 total energy-change (2. order) : 0.1802648E+08  (-0.2235230E+07)
 number of electron     170.6239236 magnetization     -42.5483393
 augmentation part       58.5468376 magnetization     -41.7613974

 Broyden mixing:
  rms(total) = 0.17908E+03    rms(broyden)= 0.17908E+03
  rms(prec ) = 0.17927E+03
  weight for this iteration     100.00

 eigenvalues of (default mixing * dielectric matrix)
  average eigenvalue GAMMA=   0.5829
  2.0047  1.7759  1.7759  1.3834  1.3834  1.1762  0.9216  0.9216  0.8405  0.8405
  0.7336  0.7173  0.7173  0.4406  0.4406  0.6293  0.6293  0.5584  0.5584  0.4156
  0.4156  0.4685  0.4685  0.2025  0.2025  0.0665  0.0665  0.0086  0.0086  0.0110
  0.3080  0.3080  0.0575  0.1285  0.1285  0.2496  0.2496  0.3645  0.3645  0.3735

 Free energy of the ion-electron system (eV)
  ---------------------------------------------------
  alpha Z        PSCENC =      1414.42802060
  Ewald energy   TEWEN  =    -20937.35936853
  -Hartree energ DENC   =     -8821.06300380
  -exchange      EXHF   =         0.00000000
  -V(xc)+E(xc)   XCENC  =       751.06097944
  PAW double counting   =   1017273.38641627 -1018408.47148431
  entropy T*S    EENTRO =         0.00000000
  eigenvalues    EBANDS = -35443194.23362879
  atomic energy  EATOM  =     34226.22651024
  Solvation  Ediel_sol  =         0.00000000
  ---------------------------------------------------
  free energy    TOTEN  = -35437696.02555888 eV

  energy without entropy =-35437696.02555888  energy(sigma->0) =-35437696.02555888


--------------------------------------------------------------------------------------------------------




--------------------------------------- Iteration      1( 281)  ---------------------------------------


    POTLOK:  cpu time      0.0127: real time      0.0137
    SETDIJ:  cpu time      2.1288: real time      2.1300
     EDDAV:  cpu time     11.9923: real time     12.0004
 BZINTS: Fermi energy:-4242.760535;  170.000000 electrons
         Band energy:-0.304787E+09;  BLOECHL correction:-3484.698040
       DOS:  cpu time      0.0951: real time      0.0952
    CHARGE:  cpu time      0.4677: real time      0.4682
    MIXING:  cpu time      0.0156: real time      0.0156
    --------------------------------------------
      LOOP:  cpu time     14.7122: real time     14.7230

 eigenvalue-minimisations  : 19456
 total energy-change (2. order) :-0.2693425E+09  (-0.8448647E+07)
 number of electron     169.9345086 magnetization     -44.0989268
 augmentation part       58.9015036 magnetization     -39.9594075

 Broyden mixing:
  rms(total) = 0.16052E+03    rms(broyden)= 0.16052E+03
  rms(prec ) = 0.16087E+03
  weight for this iteration     100.00

 eigenvalues of (default mixing * dielectric matrix)
  average eigenvalue GAMMA=   0.5849
  1.9895  1.7332  1.7332  1.4782  1.4782  1.1425  1.0779  0.8349  0.8349  0.8286
  0.8286  0.8268  0.6707  0.6505  0.6505  0.3119  0.3119  0.4513  0.4513  0.5746
  0.5298  0.5298  0.4726  0.4726  0.0618  0.0618  0.1946  0.1946  0.0073  0.0073
  0.0128  0.0543  0.2030  0.2030  0.1576  0.3001  0.3001  0.2817  0.2817  0.3651
  0.4285

 Free energy of the ion-electron system (eV)
  ---------------------------------------------------
  alpha Z        PSCENC =      1414.42802060
  Ewald energy   TEWEN  =    -20937.35936853
  -Hartree energ DENC   =     -7095.22085356
  -exchange      EXHF   =         0.00000000
  -V(xc)+E(xc)   XCENC  =       742.18951161
  PAW double counting   =    746568.78774661  -747789.08296520
  entropy T*S    EENTRO =         0.00000000
  eigenvalues    EBANDS = ******************
  atomic energy  EATOM  =     34226.22651024
  Solvation  Ediel_sol  =         0.00000000
  ---------------------------------------------------
  free energy    TOTEN  = ****************** eV

  energy without entropy =******************  energy(sigma->0) =******************


--------------------------------------------------------------------------------------------------------




--------------------------------------- Iteration      1( 282)  ---------------------------------------


    POTLOK:  cpu time      0.0123: real time      0.0128
    SETDIJ:  cpu time      2.1047: real time      2.1058
     EDDAV:  cpu time     12.0086: real time     12.0155
 BZINTS: Fermi energy:************;  170.000000 electrons
         Band energy:-0.142511E+10;  BLOECHL correction:************
       DOS:  cpu time      0.1286: real time      0.1287
    CHARGE:  cpu time      0.4689: real time      0.4691
    MIXING:  cpu time      0.0153: real time      0.0153
    --------------------------------------------
      LOOP:  cpu time     14.7385: real time     14.7472

 eigenvalue-minimisations  : 19456
 total energy-change (2. order) :-0.1120327E+10  (-0.6438540E+09)
 number of electron     169.9665376 magnetization     -46.5366970
 augmentation part       60.1469911 magnetization     -39.0483886

 Broyden mixing:
  rms(total) = 0.17968E+03    rms(broyden)= 0.17968E+03
  rms(prec ) = 0.18015E+03
  weight for this iteration     100.00

 eigenvalues of (default mixing * dielectric matrix)
  average eigenvalue GAMMA=   0.6175
  2.2714  2.2714  1.6858  1.6858  1.5640  1.2297  1.2297  0.8104  0.8104  0.8171
  0.8171  0.7904  0.6770  0.6770  0.6573  0.5918  0.5918  0.2336  0.2336  0.4158
  0.4158  0.5740  0.4345  0.4345  0.0649  0.0649  0.0080  0.0034  0.0125  0.0690
  0.1276  0.1276  0.2857  0.2857  0.1626  0.5291  0.4564  0.4564  0.3884  0.3884
  0.3288  0.2574

 Free energy of the ion-electron system (eV)
  ---------------------------------------------------
  alpha Z        PSCENC =      1414.42802060
  Ewald energy   TEWEN  =    -20937.35936853
  -Hartree energ DENC   =     -7553.45394525
  -exchange      EXHF   =         0.00000000
  -V(xc)+E(xc)   XCENC  =       722.81058546
  PAW double counting   =    830656.12889844  -831793.25692840
  entropy T*S    EENTRO =         0.00000000
  eigenvalues    EBANDS = ******************
  atomic energy  EATOM  =     34226.22651024
  Solvation  Ediel_sol  =         0.00000000
  ---------------------------------------------------
  free energy    TOTEN  = ****************** eV

  energy without entropy =******************  energy(sigma->0) =******************


--------------------------------------------------------------------------------------------------------




--------------------------------------- Iteration      1( 283)  ---------------------------------------


    POTLOK:  cpu time      0.0121: real time      0.0134
    SETDIJ:  cpu time      2.1249: real time      2.1272
     EDDAV:  cpu time     11.9904: real time     11.9976
 BZINTS: Fermi energy:************;  170.000000 electrons
         Band energy:-0.873858E+10;  BLOECHL correction:************
       DOS:  cpu time      0.1381: real time      0.1382
    CHARGE:  cpu time      0.4680: real time      0.4682
    MIXING:  cpu time      0.0148: real time      0.0148
    --------------------------------------------
      LOOP:  cpu time     14.7484: real time     14.7594

 eigenvalue-minimisations  : 19456
 total energy-change (2. order) :-0.7313465E+10  (-0.5890477E+10)
 number of electron     170.0154006 magnetization     -46.6085140
 augmentation part       60.4176262 magnetization     -40.3442825

 Broyden mixing:
  rms(total) = 0.20228E+03    rms(broyden)= 0.20228E+03
  rms(prec ) = 0.20292E+03
  weight for this iteration     100.00

 eigenvalues of (default mixing * dielectric matrix)
  average eigenvalue GAMMA=   0.6425
  2.6367  1.9009  1.9009  1.8732  1.8732  1.3060  1.1466  0.9074  0.9074  0.8928
  0.8928  0.1944  0.1944  0.7038  0.7038  0.7392  0.7392  0.0561  0.0561  0.0078
  0.0043  0.0131  0.4433  0.4433  0.0872  0.0872  0.3814  0.3814  0.2872  0.2872
  0.1376  0.1706  0.2469  0.5336  0.5336  0.3778  0.3778  0.4884  0.4884  0.6024
  0.5886  0.5411  0.4924

 Free energy of the ion-electron system (eV)
  ---------------------------------------------------
  alpha Z        PSCENC =      1414.42802060
  Ewald energy   TEWEN  =    -20937.35936853
  -Hartree energ DENC   =     -8108.41722538
  -exchange      EXHF   =         0.00000000
  -V(xc)+E(xc)   XCENC  =       742.49046113
  PAW double counting   =    976496.70763973  -977535.83145379
  entropy T*S    EENTRO =         0.00000000
  eigenvalues    EBANDS = ******************
  atomic energy  EATOM  =     34226.22651024
  Solvation  Ediel_sol  =         0.00000000
  ---------------------------------------------------
  free energy    TOTEN  = ****************** eV

  energy without entropy =******************  energy(sigma->0) =******************


--------------------------------------------------------------------------------------------------------




--------------------------------------- Iteration      1( 284)  ---------------------------------------


    POTLOK:  cpu time      0.0126: real time      0.0134
    SETDIJ:  cpu time      2.1125: real time      2.1134
     EDDAV:  cpu time     11.9744: real time     11.9818
 BZINTS: Fermi energy:************;  170.000000 electrons
         Band energy:-0.116704E+11;  BLOECHL correction:************
       DOS:  cpu time      0.1211: real time      0.1212
    CHARGE:  cpu time      0.4675: real time      0.4678
    MIXING:  cpu time      0.0160: real time      0.0160
    --------------------------------------------
      LOOP:  cpu time     14.7041: real time     14.7136

 eigenvalue-minimisations  : 19456
 total energy-change (2. order) :-0.2931827E+10  (-0.8317334E+10)
 number of electron     170.0245141 magnetization     -46.5804298
 augmentation part       59.8907147 magnetization     -40.1725349

 Broyden mixing:
  rms(total) = 0.21370E+03    rms(broyden)= 0.21370E+03
  rms(prec ) = 0.21434E+03
  weight for this iteration     100.00

 eigenvalues of (default mixing * dielectric matrix)
  average eigenvalue GAMMA=   0.6279
  2.5061  1.9404  1.9404  1.8455  1.8455  1.2440  1.1591  0.9074  0.9074  0.8977
  0.8977  0.1999  0.1999  0.7582  0.7010  0.7010  0.7300  0.0089  0.0089  0.0441
  0.0441  0.0103  0.0603  0.0603  0.1665  0.1665  0.4450  0.4450  0.1414  0.5642
  0.5642  0.2727  0.2727  0.3668  0.3668  0.5888  0.5888  0.5276  0.5276  0.3434
  0.3434  0.4249  0.4249  0.4689

 Free energy of the ion-electron system (eV)
  ---------------------------------------------------
  alpha Z        PSCENC =      1414.42802060
  Ewald energy   TEWEN  =    -20937.35936853
  -Hartree energ DENC   =     -8154.23517772
  -exchange      EXHF   =         0.00000000
  -V(xc)+E(xc)   XCENC  =       745.04646836
  PAW double counting   =    984514.72151702  -985545.52927894
  entropy T*S    EENTRO =         0.00000000
  eigenvalues    EBANDS = ******************
  atomic energy  EATOM  =     34226.22651024
  Solvation  Ediel_sol  =         0.00000000
  ---------------------------------------------------
  free energy    TOTEN  = ****************** eV

  energy without entropy =******************  energy(sigma->0) =******************


--------------------------------------------------------------------------------------------------------




--------------------------------------- Iteration      1( 285)  ---------------------------------------


    POTLOK:  cpu time      0.0124: real time      0.0129
    SETDIJ:  cpu time      2.1117: real time      2.1131
     EDDAV:  cpu time     12.0216: real time     12.0293
 BZINTS: Fermi energy:************;  170.000000 electrons
         Band energy:-0.158757E+11;  BLOECHL correction:************
       DOS:  cpu time      0.1162: real time      0.1162
    CHARGE:  cpu time      0.4711: real time      0.4718
    MIXING:  cpu time      0.0152: real time      0.0152
    --------------------------------------------
      LOOP:  cpu time     14.7483: real time     14.7585

 eigenvalue-minimisations  : 19456
 total energy-change (2. order) :-0.4205307E+10  (-0.1107457E+11)
 number of electron     170.0630605 magnetization     -45.6617950
 augmentation part       58.2700143 magnetization     -38.8307581

 Broyden mixing:
  rms(total) = 0.22007E+03    rms(broyden)= 0.22007E+03
  rms(prec ) = 0.22070E+03
  weight for this iteration     100.00

 eigenvalues of (default mixing * dielectric matrix)
  average eigenvalue GAMMA=   0.5889
  2.7041  1.8868  1.8279  1.8279  1.4323  1.0235  0.9367  0.9367  0.7375  0.7375
  0.8178  0.6787  0.6787  0.5634  0.5634  0.6216  0.4425  0.4425  0.5475  0.4763
  0.4763  0.2276  0.2276  0.3842  0.3842  0.3060  0.3060  0.2701  0.2701  0.1588
  0.1588  0.0592  0.0932  0.0932  0.0956  0.0956  0.0065  0.0065  0.0263  0.0263

 Free energy of the ion-electron system (eV)
  ---------------------------------------------------
  alpha Z        PSCENC =      1414.42802060
  Ewald energy   TEWEN  =    -20937.35936853
  -Hartree energ DENC   =     -8123.16801004
  -exchange      EXHF   =         0.00000000
  -V(xc)+E(xc)   XCENC  =       741.56678054
  PAW double counting   =    965692.05428861  -966732.07285473
  entropy T*S    EENTRO =         0.00000000
  eigenvalues    EBANDS = ******************
  atomic energy  EATOM  =     34226.22651024
  Solvation  Ediel_sol  =         0.00000000
  ---------------------------------------------------
  free energy    TOTEN  = ****************** eV

  energy without entropy =******************  energy(sigma->0) =******************


--------------------------------------------------------------------------------------------------------




--------------------------------------- Iteration      1( 286)  ---------------------------------------


    POTLOK:  cpu time      0.0127: real time      0.0134
    SETDIJ:  cpu time      2.1051: real time      2.1060
 -----------------------------------------------------------------------------
|                                                                             |
|     EEEEEEE  RRRRRR   RRRRRR   OOOOOOO  RRRRRR      ###     ###     ###     |
|     E        R     R  R     R  O     O  R     R     ###     ###     ###     |
|     E        R     R  R     R  O     O  R     R     ###     ###     ###     |
|     EEEEE    RRRRRR   RRRRRR   O     O  RRRRRR       #       #       #      |
|     E        R   R    R   R    O     O  R   R                               |
|     E        R    R   R    R   O     O  R    R      ###     ###     ###     |
|     EEEEEEE  R     R  R     R  OOOOOOO  R     R     ###     ###     ###     |
|                                                                             |
|     Error EDDDAV: Call to ZHEGV failed. Returncode = 900 2 16               |
|                                                                             |
|       ---->  I REFUSE TO CONTINUE WITH THIS SICK JOB ... BYE!!! <----       |
|                                                                             |
 -----------------------------------------------------------------------------

