 vasp.6.3.2 27Jun22 (build Jun 29 2023 15:24:44) complex                         
 executed on    LinuxNV_CrayMPICH date 2024.04.25  13:06:42
 running   32 mpi-ranks, with    8 threads/rank
 distrk:  each k-point on   32 cores,    1 groups
 distr:  one band on NCORE=   1 cores,   32 groups


--------------------------------------------------------------------------------------------------------


 INCAR:
   ALGO = Fast
   EDIFF = 0.0001
   EDIFFG = -0.05
   ENCUT = 500
   GGA = Pe
   IBRION = 2
   ISIF = 0
   ISMEAR = 1
   ISPIN = 2
   ISTART = 1
   ISYM = 0
   LASPH = True
   LCHARG = False
   LDAU = True
   LDAUJ = 0 0
   LDAUL = 2 0
   LDAUPRINT = 0
   LDAUTYPE = 2
   LDAUU = 5.3 0
   LMAXMIX = 4
   LORBIT = 11
   LREAL = False
   LVTOT = False
   LWAVE = True
   MAGMOM = 4*4.262 6*0.0
   NCORE = 4
   NELM = 80
   NSW = 300
   PREC = Accurate
   SIGMA = 0.14
   SYMPREC = 1e-10

 POTCAR:    PAW_PBE Fe_pv 02Aug2007               
 POTCAR:    PAW_PBE O 08Apr2002                   
 POTCAR:    PAW_PBE Fe_pv 02Aug2007               
   SHA256 =  5d22e414b1f82158bf2c7ecb8b97b28fd0923e48cadc1c3bf74d524558f5dd32 Fe_pv/POTCAR          
   COPYR  = (c) Copyright 02Aug2007 Georg Kresse                                                    
   COPYR  = This file is part of the software VASP. Any use, copying, and all other rights are regul
   COPYR  = If you do not have a valid VASP license, you may not use, copy or distribute this file. 
   VRHFIN =Fe:  3pd7s1                                                                              
   LEXCH  = PE                                                                                      
   EATOM  =  2457.4239 eV,  180.6156 Ry                                                             
                                                                                                    
   TITEL  = PAW_PBE Fe_pv 02Aug2007                                                                 
   LULTRA =        F    use ultrasoft PP ?                                                          
   IUNSCR =        1    unscreen: 0-lin 1-nonlin 2-no                                               
   RPACOR =    1.750    partial core radius                                                         
   POMASS =   55.847; ZVAL   =   14.000    mass and valenz                                          
   RCORE  =    2.200    outmost cutoff radius                                                       
   RWIGS  =    2.200; RWIGS  =    1.164    wigner-seitz radius (au A)                               
   ENMAX  =  293.238; ENMIN  =  219.928 eV                                                          
   ICORE  =        3    local potential                                                             
   LCOR   =        T    correct aug charges                                                         
   LPAW   =        T    paw PP                                                                      
   EAUG   =  578.342                                                                                
   DEXC   =    0.000                                                                                
   RMAX   =    2.249    core radius for proj-oper                                                   
   RAUG   =    1.300    factor for augmentation sphere                                              
   RDEP   =    2.296    radius for radial grids                                                     
   RDEPT  =    1.766    core radius for aug-charge                                                  
                                                                                                    
   Atomic configuration                                                                             
    8 entries                                                                                       
     n  l   j            E        occ.                                                              
     1  0  0.50     -6993.8440   2.0000                                                             
     2  0  0.50      -814.6047   2.0000                                                             
     2  1  1.50      -693.3689   6.0000                                                             
     3  0  0.50       -89.4732   2.0000                                                             
     3  1  1.50       -55.6373   6.0000                                                             
     3  2  2.50        -3.8151   7.0000                                                             
     4  0  0.50        -4.2551   1.0000                                                             
     4  3  2.50        -1.3606   0.0000                                                             
   Description                                                                                      
     l       E           TYP  RCUT    TYP  RCUT                                                     
     1    -55.6372668     23  2.000                                                                 
     1     -5.4423304     23  2.000                                                                 
     2     -3.8151096     23  2.200                                                                 
     2     -5.1756922     23  2.200                                                                 
     0     -4.2550951     23  2.200                                                                 
     0     27.2116520     23  2.200                                                                 
     3     -1.3605826     23  2.200                                                                 
  local pseudopotential read in
  partial core-charges read in
  partial kinetic energy density read in
  atomic valenz-charges read in
  non local Contribution for L=            1  read in
    real space projection operators read in
  non local Contribution for L=            1  read in
    real space projection operators read in
  non local Contribution for L=            2  read in
    real space projection operators read in
  non local Contribution for L=            2  read in
    real space projection operators read in
  non local Contribution for L=            0  read in
    real space projection operators read in
  non local Contribution for L=            0  read in
    real space projection operators read in
    PAW grid and wavefunctions read in
 
   number of l-projection  operators is LMAX  =            6
   number of lm-projection operators is LMMAX =           18
 
 POTCAR:    PAW_PBE O 08Apr2002                   
   SHA256 =  818f92134a0a090dccd8ba1447fa70422a3b330e708bb4f08108d8ae51209ddf O/POTCAR              
   COPYR  = (c) Copyright 08Apr2002 Georg Kresse                                                    
   COPYR  = This file is part of the software VASP. Any use, copying, and all other rights are regul
   COPYR  = If you do not have a valid VASP license, you may not use, copy or distribute this file. 
   VRHFIN =O: s2p4                                                                                  
   LEXCH  = PE                                                                                      
   EATOM  =   432.3788 eV,   31.7789 Ry                                                             
                                                                                                    
   TITEL  = PAW_PBE O 08Apr2002                                                                     
   LULTRA =        F    use ultrasoft PP ?                                                          
   IUNSCR =        1    unscreen: 0-lin 1-nonlin 2-no                                               
   RPACOR =    1.200    partial core radius                                                         
   POMASS =   16.000; ZVAL   =    6.000    mass and valenz                                          
   RCORE  =    1.520    outmost cutoff radius                                                       
   RWIGS  =    1.550; RWIGS  =    0.820    wigner-seitz radius (au A)                               
   ENMAX  =  400.000; ENMIN  =  300.000 eV                                                          
   ICORE  =        2    local potential                                                             
   LCOR   =        T    correct aug charges                                                         
   LPAW   =        T    paw PP                                                                      
   EAUG   =  605.392                                                                                
   DEXC   =    0.000                                                                                
   RMAX   =    1.553    core radius for proj-oper                                                   
   RAUG   =    1.300    factor for augmentation sphere                                              
   RDEP   =    1.550    radius for radial grids                                                     
   RDEPT  =    1.329    core radius for aug-charge                                                  
                                                                                                    
   Atomic configuration                                                                             
    4 entries                                                                                       
     n  l   j            E        occ.                                                              
     1  0  0.50      -514.6923   2.0000                                                             
     2  0  0.50       -23.9615   2.0000                                                             
     2  1  0.50        -9.0305   4.0000                                                             
     3  2  1.50        -9.5241   0.0000                                                             
   Description                                                                                      
     l       E           TYP  RCUT    TYP  RCUT                                                     
     0    -23.9615318     23  1.200                                                                 
     0     -9.5240782     23  1.200                                                                 
     1     -9.0304911     23  1.520                                                                 
     1      8.1634956     23  1.520                                                                 
     2     -9.5240782      7  1.500                                                                 
  local pseudopotential read in
  partial core-charges read in
  partial kinetic energy density read in
  kinetic energy density of atom read in
  atomic valenz-charges read in
  non local Contribution for L=            0  read in
    real space projection operators read in
  non local Contribution for L=            0  read in
    real space projection operators read in
  non local Contribution for L=            1  read in
    real space projection operators read in
  non local Contribution for L=            1  read in
    real space projection operators read in
    PAW grid and wavefunctions read in
 
   number of l-projection  operators is LMAX  =            4
   number of lm-projection operators is LMMAX =            8
 
  PAW_PBE Fe_pv 02Aug2007               :
 energy of atom  1       EATOM=-2457.4239
 kinetic energy error for atom=    0.0069 (will be added to EATOM!!)
  PAW_PBE O 08Apr2002                   :
 energy of atom  2       EATOM= -432.3788
 kinetic energy error for atom=    0.0224 (will be added to EATOM!!)
 
 
 POSCAR: Fe4 O6
  positions in direct lattice
  No initial velocities read in
 exchange correlation table for  LEXCH =        8
   RHO(1)=    0.500       N(1)  =     2000
   RHO(2)=  100.500       N(2)  =     4000

 VTST: version 4.2, (08/11/21)

 CHAIN: initializing optimizer
 
 OPT: Using VASP Conjugate-Gradient optimizer
 CHAIN: Read ICHAIN             0
 
 POSCAR: Fe4 O6
  positions in direct lattice
  No initial velocities read in
 


--------------------------------------------------------------------------------------------------------


 ion  position               nearest neighbor table
   1  0.063  0.646  0.063-  10 1.98   6 1.98   8 1.98   7 2.13   5 2.13   9 2.13
   2  0.937  0.354  0.937-   9 1.98   5 1.98   7 1.98   8 2.13   6 2.13  10 2.13
   3  0.437  0.854  0.437-  10 1.98   8 1.98   6 1.98   5 2.13   7 2.13   9 2.13
   4  0.563  0.146  0.563-   9 1.98   7 1.98   5 1.98   6 2.13   8 2.13  10 2.13
   5  0.750  0.445  0.360-   2 1.98   4 1.98   3 2.13   1 2.13
   6  0.250  0.555  0.640-   1 1.98   3 1.98   4 2.13   2 2.13
   7  0.750  0.750  0.445-   4 1.98   2 1.98   3 2.13   1 2.13
   8  0.250  0.250  0.555-   3 1.98   1 1.98   4 2.13   2 2.13
   9  0.750  0.055  0.445-   2 1.98   4 1.98   3 2.13   1 2.13
  10  0.250  0.945  0.555-   1 1.98   3 1.98   4 2.13   2 2.13
 

IMPORTANT INFORMATION: All symmetrisations will be switched off!
NOSYMM: (Re-)initialisation of all symmetry stuff for point group C_1.


----------------------------------------------------------------------------------------

                                     Primitive cell                                     

  volume of cell :     104.6680

  direct lattice vectors                    reciprocal lattice vectors
    -2.552438000  1.473653000  4.637793000     0.000001774 -0.000000927  0.215621071
    -0.000141000 -8.842041000 -0.000038000    -0.195891054 -0.113092627 -0.071874808
     2.552353000 -4.420980000 -0.000040000     0.391786288 -0.000007174  0.215624281

  length of vectors
     5.495062950  8.842041001  5.104857491     0.215621071  0.237337808  0.447202780

  position of ions in fractional coordinates (direct lattice)
     0.062526000  0.645825000  0.062523000
     0.937474000  0.354175000  0.937476000
     0.437484000  0.854170000  0.437489000
     0.562516000  0.145830000  0.562511000
     0.750007000  0.445121000  0.359759000
     0.249994000  0.554879000  0.640241000
     0.749995000  0.749999000  0.445123000
     0.250005000  0.250001000  0.554878000
     0.750001000  0.054890000  0.445110000
     0.249999000  0.945110000  0.554890000

  ion indices of the primitive-cell ions
   primitive index   ion index
                 1           1
                 2           2
                 3           3
                 4           4
                 5           5
                 6           6
                 7           7
                 8           8
                 9           9
                10          10

----------------------------------------------------------------------------------------

 
 
 KPOINTS: Automatic kpoint scheme                 

Automatic generation of k-mesh.
 Grid dimensions read from file:
 generate k-points for:   10    6   10

 Generating k-lattice:

  Cartesian coordinates                     Fractional coordinates (reciprocal lattice)
     0.000000177 -0.000000093  0.021562107     0.100000000 -0.000000000 -0.000000000
    -0.032648509 -0.018848771 -0.011979135     0.000000000  0.166666667 -0.000000000
     0.039178629 -0.000000717  0.021562428    -0.000000000  0.000000000  0.100000000

  Length of vectors
     0.021562107  0.039556301  0.044720278

  Shift w.r.t. Gamma in fractional coordinates (k-lattice)
     0.000000000  0.000000000  0.000000000

 
 Subroutine IBZKPT returns following result:
 ===========================================
 
 Found    304 irreducible k-points:
 
 Following reciprocal coordinates:
            Coordinates               Weight
  0.000000  0.000000  0.000000      1.000000
  0.100000  0.000000  0.000000      2.000000
  0.200000  0.000000  0.000000      2.000000
  0.300000  0.000000  0.000000      2.000000
  0.400000  0.000000  0.000000      2.000000
  0.500000  0.000000  0.000000      1.000000
  0.000000  0.166667  0.000000      2.000000
  0.100000  0.166667  0.000000      2.000000
  0.200000  0.166667  0.000000      2.000000
  0.300000  0.166667  0.000000      2.000000
  0.400000  0.166667  0.000000      2.000000
  0.500000  0.166667  0.000000      2.000000
 -0.400000  0.166667  0.000000      2.000000
 -0.300000  0.166667  0.000000      2.000000
 -0.200000  0.166667  0.000000      2.000000
 -0.100000  0.166667  0.000000      2.000000
  0.000000  0.333333  0.000000      2.000000
  0.100000  0.333333  0.000000      2.000000
  0.200000  0.333333  0.000000      2.000000
  0.300000  0.333333  0.000000      2.000000
  0.400000  0.333333  0.000000      2.000000
  0.500000  0.333333  0.000000      2.000000
 -0.400000  0.333333  0.000000      2.000000
 -0.300000  0.333333  0.000000      2.000000
 -0.200000  0.333333  0.000000      2.000000
 -0.100000  0.333333  0.000000      2.000000
  0.000000  0.500000  0.000000      1.000000
  0.100000  0.500000  0.000000      2.000000
  0.200000  0.500000  0.000000      2.000000
  0.300000  0.500000  0.000000      2.000000
  0.400000  0.500000  0.000000      2.000000
  0.500000  0.500000  0.000000      1.000000
  0.000000  0.000000  0.100000      2.000000
  0.100000  0.000000  0.100000      2.000000
  0.200000  0.000000  0.100000      2.000000
  0.300000  0.000000  0.100000      2.000000
  0.400000  0.000000  0.100000      2.000000
  0.500000  0.000000  0.100000      2.000000
 -0.400000  0.000000  0.100000      2.000000
 -0.300000  0.000000  0.100000      2.000000
 -0.200000  0.000000  0.100000      2.000000
 -0.100000  0.000000  0.100000      2.000000
  0.000000  0.166667  0.100000      2.000000
  0.100000  0.166667  0.100000      2.000000
  0.200000  0.166667  0.100000      2.000000
  0.300000  0.166667  0.100000      2.000000
  0.400000  0.166667  0.100000      2.000000
  0.500000  0.166667  0.100000      2.000000
 -0.400000  0.166667  0.100000      2.000000
 -0.300000  0.166667  0.100000      2.000000
 -0.200000  0.166667  0.100000      2.000000
 -0.100000  0.166667  0.100000      2.000000
  0.000000  0.333333  0.100000      2.000000
  0.100000  0.333333  0.100000      2.000000
  0.200000  0.333333  0.100000      2.000000
  0.300000  0.333333  0.100000      2.000000
  0.400000  0.333333  0.100000      2.000000
  0.500000  0.333333  0.100000      2.000000
 -0.400000  0.333333  0.100000      2.000000
 -0.300000  0.333333  0.100000      2.000000
 -0.200000  0.333333  0.100000      2.000000
 -0.100000  0.333333  0.100000      2.000000
  0.000000  0.500000  0.100000      2.000000
  0.100000  0.500000  0.100000      2.000000
  0.200000  0.500000  0.100000      2.000000
  0.300000  0.500000  0.100000      2.000000
  0.400000  0.500000  0.100000      2.000000
  0.500000  0.500000  0.100000      2.000000
 -0.400000  0.500000  0.100000      2.000000
 -0.300000  0.500000  0.100000      2.000000
 -0.200000  0.500000  0.100000      2.000000
 -0.100000  0.500000  0.100000      2.000000
  0.000000 -0.333333  0.100000      2.000000
  0.100000 -0.333333  0.100000      2.000000
  0.200000 -0.333333  0.100000      2.000000
  0.300000 -0.333333  0.100000      2.000000
  0.400000 -0.333333  0.100000      2.000000
  0.500000 -0.333333  0.100000      2.000000
 -0.400000 -0.333333  0.100000      2.000000
 -0.300000 -0.333333  0.100000      2.000000
 -0.200000 -0.333333  0.100000      2.000000
 -0.100000 -0.333333  0.100000      2.000000
  0.000000 -0.166667  0.100000      2.000000
  0.100000 -0.166667  0.100000      2.000000
  0.200000 -0.166667  0.100000      2.000000
  0.300000 -0.166667  0.100000      2.000000
  0.400000 -0.166667  0.100000      2.000000
  0.500000 -0.166667  0.100000      2.000000
 -0.400000 -0.166667  0.100000      2.000000
 -0.300000 -0.166667  0.100000      2.000000
 -0.200000 -0.166667  0.100000      2.000000
 -0.100000 -0.166667  0.100000      2.000000
  0.000000  0.000000  0.200000      2.000000
  0.100000  0.000000  0.200000      2.000000
  0.200000  0.000000  0.200000      2.000000
  0.300000  0.000000  0.200000      2.000000
  0.400000  0.000000  0.200000      2.000000
  0.500000  0.000000  0.200000      2.000000
 -0.400000  0.000000  0.200000      2.000000
 -0.300000  0.000000  0.200000      2.000000
 -0.200000  0.000000  0.200000      2.000000
 -0.100000  0.000000  0.200000      2.000000
  0.000000  0.166667  0.200000      2.000000
  0.100000  0.166667  0.200000      2.000000
  0.200000  0.166667  0.200000      2.000000
  0.300000  0.166667  0.200000      2.000000
  0.400000  0.166667  0.200000      2.000000
  0.500000  0.166667  0.200000      2.000000
 -0.400000  0.166667  0.200000      2.000000
 -0.300000  0.166667  0.200000      2.000000
 -0.200000  0.166667  0.200000      2.000000
 -0.100000  0.166667  0.200000      2.000000
  0.000000  0.333333  0.200000      2.000000
  0.100000  0.333333  0.200000      2.000000
  0.200000  0.333333  0.200000      2.000000
  0.300000  0.333333  0.200000      2.000000
  0.400000  0.333333  0.200000      2.000000
  0.500000  0.333333  0.200000      2.000000
 -0.400000  0.333333  0.200000      2.000000
 -0.300000  0.333333  0.200000      2.000000
 -0.200000  0.333333  0.200000      2.000000
 -0.100000  0.333333  0.200000      2.000000
  0.000000  0.500000  0.200000      2.000000
  0.100000  0.500000  0.200000      2.000000
  0.200000  0.500000  0.200000      2.000000
  0.300000  0.500000  0.200000      2.000000
  0.400000  0.500000  0.200000      2.000000
  0.500000  0.500000  0.200000      2.000000
 -0.400000  0.500000  0.200000      2.000000
 -0.300000  0.500000  0.200000      2.000000
 -0.200000  0.500000  0.200000      2.000000
 -0.100000  0.500000  0.200000      2.000000
  0.000000 -0.333333  0.200000      2.000000
  0.100000 -0.333333  0.200000      2.000000
  0.200000 -0.333333  0.200000      2.000000
  0.300000 -0.333333  0.200000      2.000000
  0.400000 -0.333333  0.200000      2.000000
  0.500000 -0.333333  0.200000      2.000000
 -0.400000 -0.333333  0.200000      2.000000
 -0.300000 -0.333333  0.200000      2.000000
 -0.200000 -0.333333  0.200000      2.000000
 -0.100000 -0.333333  0.200000      2.000000
  0.000000 -0.166667  0.200000      2.000000
  0.100000 -0.166667  0.200000      2.000000
  0.200000 -0.166667  0.200000      2.000000
  0.300000 -0.166667  0.200000      2.000000
  0.400000 -0.166667  0.200000      2.000000
  0.500000 -0.166667  0.200000      2.000000
 -0.400000 -0.166667  0.200000      2.000000
 -0.300000 -0.166667  0.200000      2.000000
 -0.200000 -0.166667  0.200000      2.000000
 -0.100000 -0.166667  0.200000      2.000000
  0.000000  0.000000  0.300000      2.000000
  0.100000  0.000000  0.300000      2.000000
  0.200000  0.000000  0.300000      2.000000
  0.300000  0.000000  0.300000      2.000000
  0.400000  0.000000  0.300000      2.000000
  0.500000  0.000000  0.300000      2.000000
 -0.400000  0.000000  0.300000      2.000000
 -0.300000  0.000000  0.300000      2.000000
 -0.200000  0.000000  0.300000      2.000000
 -0.100000  0.000000  0.300000      2.000000
  0.000000  0.166667  0.300000      2.000000
  0.100000  0.166667  0.300000      2.000000
  0.200000  0.166667  0.300000      2.000000
  0.300000  0.166667  0.300000      2.000000
  0.400000  0.166667  0.300000      2.000000
  0.500000  0.166667  0.300000      2.000000
 -0.400000  0.166667  0.300000      2.000000
 -0.300000  0.166667  0.300000      2.000000
 -0.200000  0.166667  0.300000      2.000000
 -0.100000  0.166667  0.300000      2.000000
  0.000000  0.333333  0.300000      2.000000
  0.100000  0.333333  0.300000      2.000000
  0.200000  0.333333  0.300000      2.000000
  0.300000  0.333333  0.300000      2.000000
  0.400000  0.333333  0.300000      2.000000
  0.500000  0.333333  0.300000      2.000000
 -0.400000  0.333333  0.300000      2.000000
 -0.300000  0.333333  0.300000      2.000000
 -0.200000  0.333333  0.300000      2.000000
 -0.100000  0.333333  0.300000      2.000000
  0.000000  0.500000  0.300000      2.000000
  0.100000  0.500000  0.300000      2.000000
  0.200000  0.500000  0.300000      2.000000
  0.300000  0.500000  0.300000      2.000000
  0.400000  0.500000  0.300000      2.000000
  0.500000  0.500000  0.300000      2.000000
 -0.400000  0.500000  0.300000      2.000000
 -0.300000  0.500000  0.300000      2.000000
 -0.200000  0.500000  0.300000      2.000000
 -0.100000  0.500000  0.300000      2.000000
  0.000000 -0.333333  0.300000      2.000000
  0.100000 -0.333333  0.300000      2.000000
  0.200000 -0.333333  0.300000      2.000000
  0.300000 -0.333333  0.300000      2.000000
  0.400000 -0.333333  0.300000      2.000000
  0.500000 -0.333333  0.300000      2.000000
 -0.400000 -0.333333  0.300000      2.000000
 -0.300000 -0.333333  0.300000      2.000000
 -0.200000 -0.333333  0.300000      2.000000
 -0.100000 -0.333333  0.300000      2.000000
  0.000000 -0.166667  0.300000      2.000000
  0.100000 -0.166667  0.300000      2.000000
  0.200000 -0.166667  0.300000      2.000000
  0.300000 -0.166667  0.300000      2.000000
  0.400000 -0.166667  0.300000      2.000000
  0.500000 -0.166667  0.300000      2.000000
 -0.400000 -0.166667  0.300000      2.000000
 -0.300000 -0.166667  0.300000      2.000000
 -0.200000 -0.166667  0.300000      2.000000
 -0.100000 -0.166667  0.300000      2.000000
  0.000000  0.000000  0.400000      2.000000
  0.100000  0.000000  0.400000      2.000000
  0.200000  0.000000  0.400000      2.000000
  0.300000  0.000000  0.400000      2.000000
  0.400000  0.000000  0.400000      2.000000
  0.500000  0.000000  0.400000      2.000000
 -0.400000  0.000000  0.400000      2.000000
 -0.300000  0.000000  0.400000      2.000000
 -0.200000  0.000000  0.400000      2.000000
 -0.100000  0.000000  0.400000      2.000000
  0.000000  0.166667  0.400000      2.000000
  0.100000  0.166667  0.400000      2.000000
  0.200000  0.166667  0.400000      2.000000
  0.300000  0.166667  0.400000      2.000000
  0.400000  0.166667  0.400000      2.000000
  0.500000  0.166667  0.400000      2.000000
 -0.400000  0.166667  0.400000      2.000000
 -0.300000  0.166667  0.400000      2.000000
 -0.200000  0.166667  0.400000      2.000000
 -0.100000  0.166667  0.400000      2.000000
  0.000000  0.333333  0.400000      2.000000
  0.100000  0.333333  0.400000      2.000000
  0.200000  0.333333  0.400000      2.000000
  0.300000  0.333333  0.400000      2.000000
  0.400000  0.333333  0.400000      2.000000
  0.500000  0.333333  0.400000      2.000000
 -0.400000  0.333333  0.400000      2.000000
 -0.300000  0.333333  0.400000      2.000000
 -0.200000  0.333333  0.400000      2.000000
 -0.100000  0.333333  0.400000      2.000000
  0.000000  0.500000  0.400000      2.000000
  0.100000  0.500000  0.400000      2.000000
  0.200000  0.500000  0.400000      2.000000
  0.300000  0.500000  0.400000      2.000000
  0.400000  0.500000  0.400000      2.000000
  0.500000  0.500000  0.400000      2.000000
 -0.400000  0.500000  0.400000      2.000000
 -0.300000  0.500000  0.400000      2.000000
 -0.200000  0.500000  0.400000      2.000000
 -0.100000  0.500000  0.400000      2.000000
  0.000000 -0.333333  0.400000      2.000000
  0.100000 -0.333333  0.400000      2.000000
  0.200000 -0.333333  0.400000      2.000000
  0.300000 -0.333333  0.400000      2.000000
  0.400000 -0.333333  0.400000      2.000000
  0.500000 -0.333333  0.400000      2.000000
 -0.400000 -0.333333  0.400000      2.000000
 -0.300000 -0.333333  0.400000      2.000000
 -0.200000 -0.333333  0.400000      2.000000
 -0.100000 -0.333333  0.400000      2.000000
  0.000000 -0.166667  0.400000      2.000000
  0.100000 -0.166667  0.400000      2.000000
  0.200000 -0.166667  0.400000      2.000000
  0.300000 -0.166667  0.400000      2.000000
  0.400000 -0.166667  0.400000      2.000000
  0.500000 -0.166667  0.400000      2.000000
 -0.400000 -0.166667  0.400000      2.000000
 -0.300000 -0.166667  0.400000      2.000000
 -0.200000 -0.166667  0.400000      2.000000
 -0.100000 -0.166667  0.400000      2.000000
  0.000000  0.000000  0.500000      1.000000
  0.100000  0.000000  0.500000      2.000000
  0.200000  0.000000  0.500000      2.000000
  0.300000  0.000000  0.500000      2.000000
  0.400000  0.000000  0.500000      2.000000
  0.500000  0.000000  0.500000      1.000000
  0.000000  0.166667  0.500000      2.000000
  0.100000  0.166667  0.500000      2.000000
  0.200000  0.166667  0.500000      2.000000
  0.300000  0.166667  0.500000      2.000000
  0.400000  0.166667  0.500000      2.000000
  0.500000  0.166667  0.500000      2.000000
 -0.400000  0.166667  0.500000      2.000000
 -0.300000  0.166667  0.500000      2.000000
 -0.200000  0.166667  0.500000      2.000000
 -0.100000  0.166667  0.500000      2.000000
  0.000000  0.333333  0.500000      2.000000
  0.100000  0.333333  0.500000      2.000000
  0.200000  0.333333  0.500000      2.000000
  0.300000  0.333333  0.500000      2.000000
  0.400000  0.333333  0.500000      2.000000
  0.500000  0.333333  0.500000      2.000000
 -0.400000  0.333333  0.500000      2.000000
 -0.300000  0.333333  0.500000      2.000000
 -0.200000  0.333333  0.500000      2.000000
 -0.100000  0.333333  0.500000      2.000000
  0.000000  0.500000  0.500000      1.000000
  0.100000  0.500000  0.500000      2.000000
  0.200000  0.500000  0.500000      2.000000
  0.300000  0.500000  0.500000      2.000000
  0.400000  0.500000  0.500000      2.000000
  0.500000  0.500000  0.500000      1.000000
 
 Following cartesian coordinates:
            Coordinates               Weight
  0.000000 -0.000000  0.000000      1.000000
  0.000000 -0.000000  0.021562      2.000000
  0.000000 -0.000000  0.043124      2.000000
  0.000001 -0.000000  0.064686      2.000000
  0.000001 -0.000000  0.086248      2.000000
  0.000001 -0.000000  0.107811      1.000000
 -0.032649 -0.018849 -0.011979      2.000000
 -0.032648 -0.018849  0.009583      2.000000
 -0.032648 -0.018849  0.031145      2.000000
 -0.032648 -0.018849  0.052707      2.000000
 -0.032648 -0.018849  0.074269      2.000000
 -0.032648 -0.018849  0.095831      2.000000
 -0.032649 -0.018848 -0.098228      2.000000
 -0.032649 -0.018848 -0.076665      2.000000
 -0.032649 -0.018849 -0.055103      2.000000
 -0.032649 -0.018849 -0.033541      2.000000
 -0.065297 -0.037698 -0.023958      2.000000
 -0.065297 -0.037698 -0.002396      2.000000
 -0.065297 -0.037698  0.019166      2.000000
 -0.065296 -0.037698  0.040728      2.000000
 -0.065296 -0.037698  0.062290      2.000000
 -0.065296 -0.037698  0.083852      2.000000
 -0.065298 -0.037697 -0.110207      2.000000
 -0.065298 -0.037697 -0.088645      2.000000
 -0.065297 -0.037697 -0.067082      2.000000
 -0.065297 -0.037697 -0.045520      2.000000
 -0.097946 -0.056546 -0.035937      1.000000
 -0.097945 -0.056546 -0.014375      2.000000
 -0.097945 -0.056546  0.007187      2.000000
 -0.097945 -0.056547  0.028749      2.000000
 -0.097945 -0.056547  0.050311      2.000000
 -0.097945 -0.056547  0.071873      1.000000
  0.039179 -0.000001  0.021562      2.000000
  0.039179 -0.000001  0.043125      2.000000
  0.039179 -0.000001  0.064687      2.000000
  0.039179 -0.000001  0.086249      2.000000
  0.039179 -0.000001  0.107811      2.000000
  0.039180 -0.000001  0.129373      2.000000
  0.039178 -0.000000 -0.064686      2.000000
  0.039178 -0.000000 -0.043124      2.000000
  0.039178 -0.000001 -0.021562      2.000000
  0.039178 -0.000001  0.000000      2.000000
  0.006530 -0.018849  0.009583      2.000000
  0.006530 -0.018850  0.031145      2.000000
  0.006530 -0.018850  0.052708      2.000000
  0.006531 -0.018850  0.074270      2.000000
  0.006531 -0.018850  0.095832      2.000000
  0.006531 -0.018850  0.117394      2.000000
  0.006529 -0.018849 -0.076665      2.000000
  0.006530 -0.018849 -0.055103      2.000000
  0.006530 -0.018849 -0.033541      2.000000
  0.006530 -0.018849 -0.011979      2.000000
 -0.026118 -0.037698 -0.002396      2.000000
 -0.026118 -0.037698  0.019166      2.000000
 -0.026118 -0.037698  0.040728      2.000000
 -0.026118 -0.037699  0.062290      2.000000
 -0.026118 -0.037699  0.083853      2.000000
 -0.026118 -0.037699  0.105415      2.000000
 -0.026119 -0.037698 -0.088644      2.000000
 -0.026119 -0.037698 -0.067082      2.000000
 -0.026119 -0.037698 -0.045520      2.000000
 -0.026119 -0.037698 -0.023958      2.000000
 -0.058767 -0.056547 -0.014375      2.000000
 -0.058767 -0.056547  0.007187      2.000000
 -0.058767 -0.056547  0.028749      2.000000
 -0.058766 -0.056547  0.050311      2.000000
 -0.058766 -0.056547  0.071873      2.000000
 -0.058766 -0.056547  0.093436      2.000000
 -0.058768 -0.056547 -0.100623      2.000000
 -0.058767 -0.056547 -0.079061      2.000000
 -0.058767 -0.056547 -0.057499      2.000000
 -0.058767 -0.056547 -0.035937      2.000000
  0.104476  0.037697  0.045521      2.000000
  0.104476  0.037697  0.067083      2.000000
  0.104476  0.037697  0.088645      2.000000
  0.104476  0.037697  0.110207      2.000000
  0.104476  0.037696  0.131769      2.000000
  0.104477  0.037696  0.153331      2.000000
  0.104475  0.037697 -0.040728      2.000000
  0.104475  0.037697 -0.019166      2.000000
  0.104475  0.037697  0.002396      2.000000
  0.104475  0.037697  0.023959      2.000000
  0.071827  0.018848  0.033542      2.000000
  0.071827  0.018848  0.055104      2.000000
  0.071827  0.018848  0.076666      2.000000
  0.071828  0.018848  0.098228      2.000000
  0.071828  0.018848  0.119790      2.000000
  0.071828  0.018848  0.141352      2.000000
  0.071826  0.018848 -0.052707      2.000000
  0.071827  0.018848 -0.031145      2.000000
  0.071827  0.018848 -0.009583      2.000000
  0.071827  0.018848  0.011979      2.000000
  0.078357 -0.000001  0.043125      2.000000
  0.078357 -0.000002  0.064687      2.000000
  0.078358 -0.000002  0.086249      2.000000
  0.078358 -0.000002  0.107811      2.000000
  0.078358 -0.000002  0.129373      2.000000
  0.078358 -0.000002  0.150935      2.000000
  0.078357 -0.000001 -0.043124      2.000000
  0.078357 -0.000001 -0.021561      2.000000
  0.078357 -0.000001  0.000001      2.000000
  0.078357 -0.000001  0.021563      2.000000
  0.045709 -0.018850  0.031146      2.000000
  0.045709 -0.018850  0.052708      2.000000
  0.045709 -0.018850  0.074270      2.000000
  0.045709 -0.018850  0.095832      2.000000
  0.045709 -0.018851  0.117394      2.000000
  0.045710 -0.018851  0.138956      2.000000
  0.045708 -0.018850 -0.055103      2.000000
  0.045708 -0.018850 -0.033541      2.000000
  0.045708 -0.018850 -0.011978      2.000000
  0.045709 -0.018850  0.009584      2.000000
  0.013060 -0.037699  0.019167      2.000000
  0.013060 -0.037699  0.040729      2.000000
  0.013061 -0.037699  0.062291      2.000000
  0.013061 -0.037699  0.083853      2.000000
  0.013061 -0.037699  0.105415      2.000000
  0.013061 -0.037699  0.126977      2.000000
  0.013060 -0.037699 -0.067082      2.000000
  0.013060 -0.037699 -0.045520      2.000000
  0.013060 -0.037699 -0.023958      2.000000
  0.013060 -0.037699 -0.002396      2.000000
 -0.019588 -0.056548  0.007187      2.000000
 -0.019588 -0.056548  0.028750      2.000000
 -0.019588 -0.056548  0.050312      2.000000
 -0.019588 -0.056548  0.071874      2.000000
 -0.019588 -0.056548  0.093436      2.000000
 -0.019587 -0.056548  0.114998      2.000000
 -0.019589 -0.056547 -0.079061      2.000000
 -0.019589 -0.056547 -0.057499      2.000000
 -0.019589 -0.056548 -0.035937      2.000000
 -0.019588 -0.056548 -0.014375      2.000000
  0.143654  0.037696  0.067083      2.000000
  0.143654  0.037696  0.088645      2.000000
  0.143655  0.037696  0.110207      2.000000
  0.143655  0.037696  0.131769      2.000000
  0.143655  0.037696  0.153332      2.000000
  0.143655  0.037696  0.174894      2.000000
  0.143654  0.037696 -0.019165      2.000000
  0.143654  0.037696  0.002397      2.000000
  0.143654  0.037696  0.023959      2.000000
  0.143654  0.037696  0.045521      2.000000
  0.111006  0.018847  0.055104      2.000000
  0.111006  0.018847  0.076666      2.000000
  0.111006  0.018847  0.098228      2.000000
  0.111006  0.018847  0.119790      2.000000
  0.111006  0.018847  0.141352      2.000000
  0.111007  0.018847  0.162915      2.000000
  0.111005  0.018848 -0.031144      2.000000
  0.111005  0.018848 -0.009582      2.000000
  0.111005  0.018848  0.011980      2.000000
  0.111006  0.018847  0.033542      2.000000
  0.117536 -0.000002  0.064687      2.000000
  0.117536 -0.000002  0.086249      2.000000
  0.117536 -0.000002  0.107811      2.000000
  0.117536 -0.000002  0.129374      2.000000
  0.117537 -0.000003  0.150936      2.000000
  0.117537 -0.000003  0.172498      2.000000
  0.117535 -0.000002 -0.021561      2.000000
  0.117535 -0.000002  0.000001      2.000000
  0.117536 -0.000002  0.021563      2.000000
  0.117536 -0.000002  0.043125      2.000000
  0.084887 -0.018851  0.052708      2.000000
  0.084888 -0.018851  0.074270      2.000000
  0.084888 -0.018851  0.095832      2.000000
  0.084888 -0.018851  0.117394      2.000000
  0.084888 -0.018851  0.138957      2.000000
  0.084888 -0.018851  0.160519      2.000000
  0.084887 -0.018851 -0.033540      2.000000
  0.084887 -0.018851 -0.011978      2.000000
  0.084887 -0.018851  0.009584      2.000000
  0.084887 -0.018851  0.031146      2.000000
  0.052239 -0.037700  0.040729      2.000000
  0.052239 -0.037700  0.062291      2.000000
  0.052239 -0.037700  0.083853      2.000000
  0.052239 -0.037700  0.105415      2.000000
  0.052240 -0.037700  0.126977      2.000000
  0.052240 -0.037700  0.148540      2.000000
  0.052238 -0.037699 -0.045519      2.000000
  0.052238 -0.037699 -0.023957      2.000000
  0.052239 -0.037700 -0.002395      2.000000
  0.052239 -0.037700  0.019167      2.000000
  0.019590 -0.056548  0.028750      2.000000
  0.019591 -0.056549  0.050312      2.000000
  0.019591 -0.056549  0.071874      2.000000
  0.019591 -0.056549  0.093436      2.000000
  0.019591 -0.056549  0.114998      2.000000
  0.019591 -0.056549  0.136560      2.000000
  0.019590 -0.056548 -0.057499      2.000000
  0.019590 -0.056548 -0.035936      2.000000
  0.019590 -0.056548 -0.014374      2.000000
  0.019590 -0.056548  0.007188      2.000000
  0.182833  0.037695  0.088646      2.000000
  0.182833  0.037695  0.110208      2.000000
  0.182833  0.037695  0.131770      2.000000
  0.182833  0.037695  0.153332      2.000000
  0.182834  0.037695  0.174894      2.000000
  0.182834  0.037695  0.196456      2.000000
  0.182832  0.037696  0.002397      2.000000
  0.182832  0.037696  0.023959      2.000000
  0.182833  0.037696  0.045521      2.000000
  0.182833  0.037695  0.067083      2.000000
  0.150184  0.018847  0.076666      2.000000
  0.150185  0.018847  0.098229      2.000000
  0.150185  0.018846  0.119791      2.000000
  0.150185  0.018846  0.141353      2.000000
  0.150185  0.018846  0.162915      2.000000
  0.150185  0.018846  0.184477      2.000000
  0.150184  0.018847 -0.009582      2.000000
  0.150184  0.018847  0.011980      2.000000
  0.150184  0.018847  0.033542      2.000000
  0.150184  0.018847  0.055104      2.000000
  0.156715 -0.000003  0.086250      2.000000
  0.156715 -0.000003  0.107812      2.000000
  0.156715 -0.000003  0.129374      2.000000
  0.156715 -0.000003  0.150936      2.000000
  0.156715 -0.000003  0.172498      2.000000
  0.156715 -0.000003  0.194060      2.000000
  0.156714 -0.000002  0.000001      2.000000
  0.156714 -0.000003  0.021563      2.000000
  0.156714 -0.000003  0.043125      2.000000
  0.156714 -0.000003  0.064688      2.000000
  0.124066 -0.018852  0.074271      2.000000
  0.124066 -0.018852  0.095833      2.000000
  0.124066 -0.018852  0.117395      2.000000
  0.124067 -0.018852  0.138957      2.000000
  0.124067 -0.018852  0.160519      2.000000
  0.124067 -0.018852  0.182081      2.000000
  0.124065 -0.018851 -0.011978      2.000000
  0.124065 -0.018851  0.009584      2.000000
  0.124066 -0.018851  0.031146      2.000000
  0.124066 -0.018852  0.052708      2.000000
  0.091417 -0.037700  0.062291      2.000000
  0.091418 -0.037701  0.083854      2.000000
  0.091418 -0.037701  0.105416      2.000000
  0.091418 -0.037701  0.126978      2.000000
  0.091418 -0.037701  0.148540      2.000000
  0.091418 -0.037701  0.170102      2.000000
  0.091417 -0.037700 -0.023957      2.000000
  0.091417 -0.037700 -0.002395      2.000000
  0.091417 -0.037700  0.019167      2.000000
  0.091417 -0.037700  0.040729      2.000000
  0.058769 -0.056549  0.050312      2.000000
  0.058769 -0.056549  0.071874      2.000000
  0.058769 -0.056549  0.093437      2.000000
  0.058770 -0.056549  0.114999      2.000000
  0.058770 -0.056550  0.136561      2.000000
  0.058770 -0.056550  0.158123      2.000000
  0.058768 -0.056549 -0.035936      2.000000
  0.058768 -0.056549 -0.014374      2.000000
  0.058769 -0.056549  0.007188      2.000000
  0.058769 -0.056549  0.028750      2.000000
  0.222012  0.037695  0.110208      2.000000
  0.222012  0.037695  0.131770      2.000000
  0.222012  0.037694  0.153332      2.000000
  0.222012  0.037694  0.174894      2.000000
  0.222012  0.037694  0.196456      2.000000
  0.222012  0.037694  0.218019      2.000000
  0.222011  0.037695  0.023960      2.000000
  0.222011  0.037695  0.045522      2.000000
  0.222011  0.037695  0.067084      2.000000
  0.222011  0.037695  0.088646      2.000000
  0.189363  0.018846  0.098229      2.000000
  0.189363  0.018846  0.119791      2.000000
  0.189363  0.018846  0.141353      2.000000
  0.189364  0.018846  0.162915      2.000000
  0.189364  0.018846  0.184477      2.000000
  0.189364  0.018845  0.206039      2.000000
  0.189362  0.018846  0.011980      2.000000
  0.189362  0.018846  0.033543      2.000000
  0.189363  0.018846  0.055105      2.000000
  0.189363  0.018846  0.076667      2.000000
  0.195893 -0.000004  0.107812      1.000000
  0.195893 -0.000004  0.129374      2.000000
  0.195893 -0.000004  0.150936      2.000000
  0.195894 -0.000004  0.172498      2.000000
  0.195894 -0.000004  0.194061      2.000000
  0.195894 -0.000004  0.215623      1.000000
  0.163245 -0.018852  0.095833      2.000000
  0.163245 -0.018852  0.117395      2.000000
  0.163245 -0.018853  0.138957      2.000000
  0.163245 -0.018853  0.160519      2.000000
  0.163245 -0.018853  0.182081      2.000000
  0.163246 -0.018853  0.203644      2.000000
  0.163244 -0.018852  0.009585      2.000000
  0.163244 -0.018852  0.031147      2.000000
  0.163244 -0.018852  0.052709      2.000000
  0.163244 -0.018852  0.074271      2.000000
  0.130596 -0.037701  0.083854      2.000000
  0.130596 -0.037701  0.105416      2.000000
  0.130596 -0.037701  0.126978      2.000000
  0.130597 -0.037701  0.148540      2.000000
  0.130597 -0.037702  0.170102      2.000000
  0.130597 -0.037702  0.191664      2.000000
  0.130595 -0.037701 -0.002395      2.000000
  0.130596 -0.037701  0.019168      2.000000
  0.130596 -0.037701  0.040730      2.000000
  0.130596 -0.037701  0.062292      2.000000
  0.097948 -0.056550  0.071875      1.000000
  0.097948 -0.056550  0.093437      2.000000
  0.097948 -0.056550  0.114999      2.000000
  0.097948 -0.056550  0.136561      2.000000
  0.097948 -0.056550  0.158123      2.000000
  0.097949 -0.056550  0.179685      1.000000
 


--------------------------------------------------------------------------------------------------------




 Dimension of arrays:
   k-points           NKPTS =    304   k-points in BZ     NKDIM =    304   number of bands    NBANDS=     64
   number of dos      NEDOS =    301   number of ions     NIONS =     10
   non local maximal  LDIM  =      6   non local SUM 2l+1 LMDIM =     18
   total plane-waves  NPLWV = 102400
   max r-space proj   IRMAX =      1   max aug-charges    IRDMAX=  29171
   dimension x,y,z NGX =    40 NGY =   64 NGZ =   40
   dimension x,y,z NGXF=    80 NGYF=  128 NGZF=   80
   support grid    NGXF=    80 NGYF=  128 NGZF=   80
   ions per type =               4   6
   NGX,Y,Z   is equivalent  to a cutoff of  12.10, 12.03, 13.03 a.u.
   NGXF,Y,Z  is equivalent  to a cutoff of  24.20, 24.07, 26.05 a.u.

 SYSTEM =  unknown system                          
 POSCAR =  Fe4 O6                                  

 Startparameter for this run:
   NWRITE =      2    write-flag & timer
   PREC   = accura    normal or accurate (medium, high low for compatibility)
   ISTART =      1    job   : 0-new  1-cont  2-samecut
   ICHARG =      0    charge: 1-file 2-atom 10-const
   ISPIN  =      2    spin polarized calculation?
   LNONCOLLINEAR =      F non collinear calculations
   LSORBIT =      F    spin-orbit coupling
   INIWAV =      1    electr: 0-lowe 1-rand  2-diag
   LASPH  =      T    aspherical Exc in radial PAW
 Electronic Relaxation 1
   ENCUT  =  500.0 eV  36.75 Ry    6.06 a.u.  10.02 16.12  9.31*2*pi/ulx,y,z
   ENINI  =  500.0     initial cutoff
   ENAUG  =  605.4 eV  augmentation charge cutoff
   NELM   =     80;   NELMIN=  2; NELMDL=  0     # of ELM steps 
   EDIFF  = 0.1E-03   stopping-criterion for ELM
   LREAL  =      F    real-space projection
   NLSPLINE    = F    spline interpolate recip. space projectors
   LCOMPAT=      F    compatible to vasp.4.4
   GGA_COMPAT  = T    GGA compatible to vasp.4.4-vasp.4.6
   LMAXPAW     = -100 max onsite density
   LMAXMIX     =    4 max onsite mixed and CHGCAR
   VOSKOWN=      0    Vosko Wilk Nusair interpolation
   ROPT   =    0.00000   0.00000
 Ionic relaxation
   EDIFFG = -.5E-01   stopping-criterion for IOM
   NSW    =    300    number of steps for IOM
   NBLOCK =      1;   KBLOCK =    300    inner block; outer block 
   IBRION =      2    ionic relax: 0-MD 1-quasi-New 2-CG
   NFREE  =      1    steps in history (QN), initial steepest desc. (CG)
   ISIF   =      0    stress and relaxation
   IWAVPR =     11    prediction:  0-non 1-charg 2-wave 3-comb
   ISYM   =      0    0-nonsym 1-usesym 2-fastsym
   LCORR  =      T    Harris-Foulkes like correction to forces

   POTIM  = 0.5000    time-step for ionic-motion
   TEIN   =    0.0    initial temperature
   TEBEG  =    0.0;   TEEND  =   0.0 temperature during run
   SMASS  =  -3.00    Nose mass-parameter (am)
   estimated Nose-frequenzy (Omega)   =  0.10E-29 period in steps = 0.13E+47 mass=  -0.690E-27a.u.
   SCALEE = 1.0000    scale energy and forces
   NPACO  =    256;   APACO  = 10.0  distance and # of slots for P.C.
   PSTRESS=    0.0 pullay stress

  Mass of Ions in am
   POMASS =  55.85 16.00
  Ionic Valenz
   ZVAL   =  14.00  6.00
  Atomic Wigner-Seitz radii
   RWIGS  =  -1.00 -1.00
  virtual crystal weights 
   VCA    =   1.00  1.00
   NELECT =      92.0000    total number of electrons
   NUPDOWN=      -1.0000    fix difference up-down

 DOS related values:
   EMIN   =  10.00;   EMAX   =-10.00  energy-range for DOS
   EFERMI =   0.00
   ISMEAR =     1;   SIGMA  =   0.14  broadening in eV -4-tet -1-fermi 0-gaus

 Electronic relaxation 2 (details)
   IALGO  =     68    algorithm
   LDIAG  =      T    sub-space diagonalisation (order eigenvalues)
   LSUBROT=      F    optimize rotation matrix (better conditioning)
   TURBO    =      0    0=normal 1=particle mesh
   IRESTART =      0    0=no restart 2=restart with 2 vectors
   NREBOOT  =      0    no. of reboots
   NMIN     =      0    reboot dimension
   EREF     =   0.00    reference energy to select bands
   IMIX   =      4    mixing-type and parameters
     AMIX     =   0.40;   BMIX     =  1.00
     AMIX_MAG =   1.60;   BMIX_MAG =  1.00
     AMIN     =   0.10
     WC   =   100.;   INIMIX=   1;  MIXPRE=   1;  MAXMIX= -45

 Intra band minimization:
   WEIMIN = 0.0010     energy-eigenvalue tresh-hold
   EBREAK =  0.39E-06  absolut break condition
   DEPER  =   0.30     relativ break condition  

   TIME   =   0.40     timestep for ELM

  volume/ion in A,a.u.               =      10.47        70.63
  Fermi-wavevector in a.u.,A,eV,Ry     =   1.568193  2.963454 33.459832  2.459228
  Thomas-Fermi vector in A             =   2.670260
 
 Write flags
   LWAVE        =      T    write WAVECAR
   LDOWNSAMPLE  =      F    k-point downsampling of WAVECAR
   LCHARG       =      F    write CHGCAR
   LVTOT        =      F    write LOCPOT, total local potential
   LVHAR        =      F    write LOCPOT, Hartree potential only
   LELF         =      F    write electronic localiz. function (ELF)
   LORBIT       =     11    0 simple, 1 ext, 2 COOP (PROOUT), +10 PAW based schemes


 Dipole corrections
   LMONO  =      F    monopole corrections only (constant potential shift)
   LDIPOL =      F    correct potential (dipole corrections)
   IDIPOL =      0    1-x, 2-y, 3-z, 4-all directions 
   EPSILON=  1.0000000 bulk dielectric constant

 LDA+U is selected, type is set to LDAUTYPE =  2
   angular momentum for each species LDAUL =     2    0
   U (eV)           for each species LDAUU =   5.3  0.0
   J (eV)           for each species LDAUJ =   0.0  0.0
 Exchange correlation treatment:
   GGA     =    PE    GGA type
   LEXCH   =     8    internal setting for exchange type
   LIBXC   =     F    Libxc                    
   VOSKOWN =     0    Vosko Wilk Nusair interpolation
   LHFCALC =     F    Hartree Fock is set to
   LHFONE  =     F    Hartree Fock one center treatment
   AEXX    =    0.0000 exact exchange contribution

 Linear response parameters
   LEPSILON=     F    determine dielectric tensor
   LRPA    =     F    only Hartree local field effects (RPA)
   LNABLA  =     F    use nabla operator in PAW spheres
   LVEL    =     F    velocity operator in full k-point grid
   CSHIFT  =0.1000    complex shift for real part using Kramers Kronig
   OMEGAMAX=  -1.0    maximum frequency
   DEG_THRESHOLD= 0.2000000E-02 threshold for treating states as degnerate
   RTIME   =   -0.100 relaxation time in fs
  (WPLASMAI=    0.000 imaginary part of plasma frequency in eV, 0.658/RTIME)
   DFIELD  = 0.0000000 0.0000000 0.0000000 field for delta impulse in time
 
  Optional k-point grid parameters
   LKPOINTS_OPT  =     F    use optional k-point grid
   KPOINTS_OPT_MODE=     1    mode for optional k-point grid
 
 Orbital magnetization related:
   ORBITALMAG=     F  switch on orbital magnetization
   LCHIMAG   =     F  perturbation theory with respect to B field
   DQ        =  0.001000  dq finite difference perturbation B field
   LLRAUG    =     F  two centre corrections for induced B field



--------------------------------------------------------------------------------------------------------


 conjugate gradient relaxation of ions
 charge density and potential will be updated during run
 spin polarized calculation
 RMM-DIIS sequential band-by-band and
  variant of blocked Davidson during initial phase
 perform sub-space diagonalisation
    before iterative eigenvector-optimisation
 modified Broyden-mixing scheme, WC =      100.0
 initial mixing is a Kerker type mixing with AMIX =  0.4000 and BMIX =      1.0000
 Hartree-type preconditioning will be used
 using additional bands            18
 reciprocal scheme for non local part
 use partial core corrections
 calculate Harris-corrections to forces 
   (improved forces if not selfconsistent)
 use gradient corrections 
 use of overlap-Matrix (Vanderbilt PP)
 Methfessel and Paxton  Order N= 1 SIGMA  =   0.14


--------------------------------------------------------------------------------------------------------


  energy-cutoff  :      500.00
  volume of cell :      104.67
      direct lattice vectors                 reciprocal lattice vectors
    -2.552438000  1.473653000  4.637793000     0.000001774 -0.000000927  0.215621071
    -0.000141000 -8.842041000 -0.000038000    -0.195891054 -0.113092627 -0.071874808
     2.552353000 -4.420980000 -0.000040000     0.391786288 -0.000007174  0.215624281

  length of vectors
     5.495062950  8.842041001  5.104857491     0.215621071  0.237337808  0.447202780


 
 old parameters found on file WAVECAR:
  energy-cutoff  :      500.00
  volume of cell :      104.67
      direct lattice vectors                 reciprocal lattice vectors
    -2.552438000  1.473653000  4.637793000     0.000001774 -0.000000927  0.215621071
    -0.000141000 -8.842041000 -0.000038000    -0.195891054 -0.113092627 -0.071874808
     2.552353000 -4.420980000 -0.000040000     0.391786288 -0.000007174  0.215624281

  length of vectors

 
 k-points in units of 2pi/SCALE and weight: Automatic kpoint scheme                 
   0.00000000 -0.00000000  0.00000000       0.002
   0.00000018 -0.00000009  0.02156211       0.003
   0.00000035 -0.00000019  0.04312421       0.003
   0.00000053 -0.00000028  0.06468632       0.003
   0.00000071 -0.00000037  0.08624843       0.003
   0.00000089 -0.00000046  0.10781054       0.002
  -0.03264851 -0.01884877 -0.01197913       0.003
  -0.03264833 -0.01884886  0.00958297       0.003
  -0.03264815 -0.01884896  0.03114508       0.003
  -0.03264798 -0.01884905  0.05270719       0.003
  -0.03264780 -0.01884914  0.07426929       0.003
  -0.03264762 -0.01884923  0.09583140       0.003
  -0.03264922 -0.01884840 -0.09822756       0.003
  -0.03264904 -0.01884849 -0.07666546       0.003
  -0.03264886 -0.01884859 -0.05510335       0.003
  -0.03264869 -0.01884868 -0.03354124       0.003
  -0.06529702 -0.03769754 -0.02395827       0.003
  -0.06529684 -0.03769764 -0.00239616       0.003
  -0.06529666 -0.03769773  0.01916594       0.003
  -0.06529649 -0.03769782  0.04072805       0.003
  -0.06529631 -0.03769791  0.06229016       0.003
  -0.06529613 -0.03769801  0.08385227       0.003
  -0.06529773 -0.03769717 -0.11020670       0.003
  -0.06529755 -0.03769726 -0.08864459       0.003
  -0.06529737 -0.03769736 -0.06708248       0.003
  -0.06529720 -0.03769745 -0.04552038       0.003
  -0.09794553 -0.05654631 -0.03593740       0.002
  -0.09794535 -0.05654641 -0.01437530       0.003
  -0.09794517 -0.05654650  0.00718681       0.003
  -0.09794499 -0.05654659  0.02874892       0.003
  -0.09794482 -0.05654668  0.05031102       0.003
  -0.09794464 -0.05654678  0.07187313       0.002
   0.03917863 -0.00000072  0.02156243       0.003
   0.03917881 -0.00000081  0.04312454       0.003
   0.03917898 -0.00000090  0.06468664       0.003
   0.03917916 -0.00000100  0.08624875       0.003
   0.03917934 -0.00000109  0.10781086       0.003
   0.03917952 -0.00000118  0.12937296       0.003
   0.03917792 -0.00000035 -0.06468600       0.003
   0.03917810 -0.00000044 -0.04312389       0.003
   0.03917827 -0.00000053 -0.02156179       0.003
   0.03917845 -0.00000062  0.00000032       0.003
   0.00653012 -0.01884949  0.00958329       0.003
   0.00653030 -0.01884958  0.03114540       0.003
   0.00653047 -0.01884967  0.05270751       0.003
   0.00653065 -0.01884977  0.07426961       0.003
   0.00653083 -0.01884986  0.09583172       0.003
   0.00653101 -0.01884995  0.11739383       0.003
   0.00652941 -0.01884912 -0.07666513       0.003
   0.00652959 -0.01884921 -0.05510303       0.003
   0.00652977 -0.01884930 -0.03354092       0.003
   0.00652994 -0.01884940 -0.01197881       0.003
  -0.02611839 -0.03769826 -0.00239584       0.003
  -0.02611821 -0.03769835  0.01916627       0.003
  -0.02611803 -0.03769845  0.04072837       0.003
  -0.02611786 -0.03769854  0.06229048       0.003
  -0.02611768 -0.03769863  0.08385259       0.003
  -0.02611750 -0.03769872  0.10541469       0.003
  -0.02611910 -0.03769789 -0.08864427       0.003
  -0.02611892 -0.03769798 -0.06708216       0.003
  -0.02611874 -0.03769807 -0.04552006       0.003
  -0.02611857 -0.03769817 -0.02395795       0.003
  -0.05876690 -0.05654703 -0.01437498       0.003
  -0.05876672 -0.05654712  0.00718713       0.003
  -0.05876654 -0.05654722  0.02874924       0.003
  -0.05876637 -0.05654731  0.05031135       0.003
  -0.05876619 -0.05654740  0.07187345       0.003
  -0.05876601 -0.05654749  0.09343556       0.003
  -0.05876761 -0.05654666 -0.10062340       0.003
  -0.05876743 -0.05654675 -0.07906130       0.003
  -0.05876725 -0.05654685 -0.05749919       0.003
  -0.05876708 -0.05654694 -0.03593708       0.003
   0.10447565  0.03769683  0.04552070       0.003
   0.10447582  0.03769673  0.06708280       0.003
   0.10447600  0.03769664  0.08864491       0.003
   0.10447618  0.03769655  0.11020702       0.003
   0.10447636  0.03769645  0.13176913       0.003
   0.10447653  0.03769636  0.15333123       0.003
   0.10447494  0.03769720 -0.04072773       0.003
   0.10447511  0.03769710 -0.01916562       0.003
   0.10447529  0.03769701  0.00239648       0.003
   0.10447547  0.03769692  0.02395859       0.003
   0.07182714  0.01884805  0.03354156       0.003
   0.07182732  0.01884796  0.05510367       0.003
   0.07182749  0.01884787  0.07666578       0.003
   0.07182767  0.01884778  0.09822788       0.003
   0.07182785  0.01884768  0.11978999       0.003
   0.07182802  0.01884759  0.14135210       0.003
   0.07182643  0.01884842 -0.05270687       0.003
   0.07182661  0.01884833 -0.03114476       0.003
   0.07182678  0.01884824 -0.00958265       0.003
   0.07182696  0.01884815  0.01197946       0.003
   0.07835726 -0.00000143  0.04312486       0.003
   0.07835743 -0.00000153  0.06468696       0.003
   0.07835761 -0.00000162  0.08624907       0.003
   0.07835779 -0.00000171  0.10781118       0.003
   0.07835797 -0.00000181  0.12937328       0.003
   0.07835814 -0.00000190  0.15093539       0.003
   0.07835655 -0.00000106 -0.04312357       0.003
   0.07835673 -0.00000116 -0.02156147       0.003
   0.07835690 -0.00000125  0.00000064       0.003
   0.07835708 -0.00000134  0.02156275       0.003
   0.04570875 -0.01885021  0.03114572       0.003
   0.04570893 -0.01885030  0.05270783       0.003
   0.04570910 -0.01885039  0.07426994       0.003
   0.04570928 -0.01885048  0.09583204       0.003
   0.04570946 -0.01885058  0.11739415       0.003
   0.04570964 -0.01885067  0.13895626       0.003
   0.04570804 -0.01884984 -0.05510271       0.003
   0.04570822 -0.01884993 -0.03354060       0.003
   0.04570839 -0.01885002 -0.01197849       0.003
   0.04570857 -0.01885011  0.00958361       0.003
   0.01306024 -0.03769898  0.01916659       0.003
   0.01306042 -0.03769907  0.04072869       0.003
   0.01306059 -0.03769916  0.06229080       0.003
   0.01306077 -0.03769926  0.08385291       0.003
   0.01306095 -0.03769935  0.10541502       0.003
   0.01306113 -0.03769944  0.12697712       0.003
   0.01305953 -0.03769861 -0.06708184       0.003
   0.01305971 -0.03769870 -0.04551973       0.003
   0.01305988 -0.03769879 -0.02395763       0.003
   0.01306006 -0.03769888 -0.00239552       0.003
  -0.01958827 -0.05654775  0.00718745       0.003
  -0.01958809 -0.05654784  0.02874956       0.003
  -0.01958791 -0.05654793  0.05031167       0.003
  -0.01958774 -0.05654803  0.07187377       0.003
  -0.01958756 -0.05654812  0.09343588       0.003
  -0.01958738 -0.05654821  0.11499799       0.003
  -0.01958898 -0.05654738 -0.07906098       0.003
  -0.01958880 -0.05654747 -0.05749887       0.003
  -0.01958862 -0.05654756 -0.03593676       0.003
  -0.01958845 -0.05654766 -0.01437465       0.003
   0.14365428  0.03769611  0.06708313       0.003
   0.14365445  0.03769601  0.08864523       0.003
   0.14365463  0.03769592  0.11020734       0.003
   0.14365481  0.03769583  0.13176945       0.003
   0.14365499  0.03769574  0.15333155       0.003
   0.14365516  0.03769564  0.17489366       0.003
   0.14365357  0.03769648 -0.01916530       0.003
   0.14365374  0.03769639  0.00239680       0.003
   0.14365392  0.03769629  0.02395891       0.003
   0.14365410  0.03769620  0.04552102       0.003
   0.11100577  0.01884734  0.05510399       0.003
   0.11100594  0.01884724  0.07666610       0.003
   0.11100612  0.01884715  0.09822821       0.003
   0.11100630  0.01884706  0.11979031       0.003
   0.11100648  0.01884697  0.14135242       0.003
   0.11100665  0.01884687  0.16291453       0.003
   0.11100506  0.01884771 -0.03114444       0.003
   0.11100523  0.01884761 -0.00958233       0.003
   0.11100541  0.01884752  0.01197978       0.003
   0.11100559  0.01884743  0.03354188       0.003
   0.11753589 -0.00000215  0.06468728       0.003
   0.11753606 -0.00000224  0.08624939       0.003
   0.11753624 -0.00000234  0.10781150       0.003
   0.11753642 -0.00000243  0.12937361       0.003
   0.11753660 -0.00000252  0.15093571       0.003
   0.11753677 -0.00000262  0.17249782       0.003
   0.11753518 -0.00000178 -0.02156114       0.003
   0.11753535 -0.00000187  0.00000096       0.003
   0.11753553 -0.00000197  0.02156307       0.003
   0.11753571 -0.00000206  0.04312518       0.003
   0.08488738 -0.01885092  0.05270815       0.003
   0.08488755 -0.01885102  0.07427026       0.003
   0.08488773 -0.01885111  0.09583236       0.003
   0.08488791 -0.01885120  0.11739447       0.003
   0.08488809 -0.01885129  0.13895658       0.003
   0.08488826 -0.01885139  0.16051869       0.003
   0.08488667 -0.01885055 -0.03354028       0.003
   0.08488685 -0.01885065 -0.01197817       0.003
   0.08488702 -0.01885074  0.00958394       0.003
   0.08488720 -0.01885083  0.03114604       0.003
   0.05223887 -0.03769969  0.04072902       0.003
   0.05223905 -0.03769979  0.06229112       0.003
   0.05223922 -0.03769988  0.08385323       0.003
   0.05223940 -0.03769997  0.10541534       0.003
   0.05223958 -0.03770007  0.12697744       0.003
   0.05223976 -0.03770016  0.14853955       0.003
   0.05223816 -0.03769932 -0.04551941       0.003
   0.05223834 -0.03769942 -0.02395731       0.003
   0.05223851 -0.03769951 -0.00239520       0.003
   0.05223869 -0.03769960  0.01916691       0.003
   0.01959036 -0.05654847  0.02874988       0.003
   0.01959054 -0.05654856  0.05031199       0.003
   0.01959071 -0.05654865  0.07187409       0.003
   0.01959089 -0.05654874  0.09343620       0.003
   0.01959107 -0.05654884  0.11499831       0.003
   0.01959125 -0.05654893  0.13656042       0.003
   0.01958965 -0.05654810 -0.05749855       0.003
   0.01958983 -0.05654819 -0.03593644       0.003
   0.01959000 -0.05654828 -0.01437433       0.003
   0.01959018 -0.05654837  0.00718777       0.003
   0.18283290  0.03769539  0.08864555       0.003
   0.18283308  0.03769530  0.11020766       0.003
   0.18283326  0.03769520  0.13176977       0.003
   0.18283344  0.03769511  0.15333187       0.003
   0.18283361  0.03769502  0.17489398       0.003
   0.18283379  0.03769493  0.19645609       0.003
   0.18283219  0.03769576  0.00239713       0.003
   0.18283237  0.03769567  0.02395923       0.003
   0.18283255  0.03769558  0.04552134       0.003
   0.18283273  0.03769548  0.06708345       0.003
   0.15018440  0.01884662  0.07666642       0.003
   0.15018457  0.01884653  0.09822853       0.003
   0.15018475  0.01884643  0.11979063       0.003
   0.15018493  0.01884634  0.14135274       0.003
   0.15018510  0.01884625  0.16291485       0.003
   0.15018528  0.01884616  0.18447695       0.003
   0.15018369  0.01884699 -0.00958201       0.003
   0.15018386  0.01884690  0.01198010       0.003
   0.15018404  0.01884680  0.03354220       0.003
   0.15018422  0.01884671  0.05510431       0.003
   0.15671452 -0.00000287  0.08624971       0.003
   0.15671469 -0.00000296  0.10781182       0.003
   0.15671487 -0.00000306  0.12937393       0.003
   0.15671505 -0.00000315  0.15093603       0.003
   0.15671522 -0.00000324  0.17249814       0.003
   0.15671540 -0.00000333  0.19406025       0.003
   0.15671381 -0.00000250  0.00000128       0.003
   0.15671398 -0.00000259  0.02156339       0.003
   0.15671416 -0.00000268  0.04312550       0.003
   0.15671434 -0.00000278  0.06468761       0.003
   0.12406601 -0.01885164  0.07427058       0.003
   0.12406618 -0.01885173  0.09583268       0.003
   0.12406636 -0.01885183  0.11739479       0.003
   0.12406654 -0.01885192  0.13895690       0.003
   0.12406672 -0.01885201  0.16051901       0.003
   0.12406689 -0.01885210  0.18208111       0.003
   0.12406530 -0.01885127 -0.01197785       0.003
   0.12406547 -0.01885136  0.00958426       0.003
   0.12406565 -0.01885146  0.03114636       0.003
   0.12406583 -0.01885155  0.05270847       0.003
   0.09141750 -0.03770041  0.06229144       0.003
   0.09141767 -0.03770050  0.08385355       0.003
   0.09141785 -0.03770060  0.10541566       0.003
   0.09141803 -0.03770069  0.12697776       0.003
   0.09141821 -0.03770078  0.14853987       0.003
   0.09141838 -0.03770088  0.17010198       0.003
   0.09141679 -0.03770004 -0.02395699       0.003
   0.09141697 -0.03770013 -0.00239488       0.003
   0.09141714 -0.03770023  0.01916723       0.003
   0.09141732 -0.03770032  0.04072934       0.003
   0.05876899 -0.05654918  0.05031231       0.003
   0.05876917 -0.05654928  0.07187442       0.003
   0.05876934 -0.05654937  0.09343652       0.003
   0.05876952 -0.05654946  0.11499863       0.003
   0.05876970 -0.05654955  0.13656074       0.003
   0.05876988 -0.05654965  0.15812284       0.003
   0.05876828 -0.05654881 -0.03593612       0.003
   0.05876846 -0.05654891 -0.01437401       0.003
   0.05876863 -0.05654900  0.00718809       0.003
   0.05876881 -0.05654909  0.02875020       0.003
   0.22201153  0.03769467  0.11020798       0.003
   0.22201171  0.03769458  0.13177009       0.003
   0.22201189  0.03769449  0.15333220       0.003
   0.22201207  0.03769439  0.17489430       0.003
   0.22201224  0.03769430  0.19645641       0.003
   0.22201242  0.03769421  0.21801852       0.003
   0.22201082  0.03769504  0.02395955       0.003
   0.22201100  0.03769495  0.04552166       0.003
   0.22201118  0.03769486  0.06708377       0.003
   0.22201136  0.03769477  0.08864587       0.003
   0.18936302  0.01884590  0.09822885       0.003
   0.18936320  0.01884581  0.11979095       0.003
   0.18936338  0.01884572  0.14135306       0.003
   0.18936356  0.01884562  0.16291517       0.003
   0.18936373  0.01884553  0.18447728       0.003
   0.18936391  0.01884544  0.20603938       0.003
   0.18936231  0.01884627  0.01198042       0.003
   0.18936249  0.01884618  0.03354253       0.003
   0.18936267  0.01884609  0.05510463       0.003
   0.18936285  0.01884599  0.07666674       0.003
   0.19589314 -0.00000359  0.10781214       0.002
   0.19589332 -0.00000368  0.12937425       0.003
   0.19589350 -0.00000377  0.15093635       0.003
   0.19589368 -0.00000387  0.17249846       0.003
   0.19589385 -0.00000396  0.19406057       0.003
   0.19589403 -0.00000405  0.21562268       0.002
   0.16324464 -0.01885236  0.09583301       0.003
   0.16324481 -0.01885245  0.11739511       0.003
   0.16324499 -0.01885254  0.13895722       0.003
   0.16324517 -0.01885264  0.16051933       0.003
   0.16324534 -0.01885273  0.18208143       0.003
   0.16324552 -0.01885282  0.20364354       0.003
   0.16324393 -0.01885199  0.00958458       0.003
   0.16324410 -0.01885208  0.03114668       0.003
   0.16324428 -0.01885217  0.05270879       0.003
   0.16324446 -0.01885227  0.07427090       0.003
   0.13059613 -0.03770113  0.08385387       0.003
   0.13059630 -0.03770122  0.10541598       0.003
   0.13059648 -0.03770131  0.12697809       0.003
   0.13059666 -0.03770141  0.14854019       0.003
   0.13059684 -0.03770150  0.17010230       0.003
   0.13059701 -0.03770159  0.19166441       0.003
   0.13059542 -0.03770076 -0.00239456       0.003
   0.13059559 -0.03770085  0.01916755       0.003
   0.13059577 -0.03770094  0.04072966       0.003
   0.13059595 -0.03770104  0.06229176       0.003
   0.09794762 -0.05654990  0.07187474       0.002
   0.09794779 -0.05654999  0.09343684       0.003
   0.09794797 -0.05655009  0.11499895       0.003
   0.09794815 -0.05655018  0.13656106       0.003
   0.09794833 -0.05655027  0.15812317       0.003
   0.09794850 -0.05655036  0.17968527       0.002
 
 k-points in reciprocal lattice and weights: Automatic kpoint scheme                 
   0.00000000  0.00000000  0.00000000       0.002
   0.10000000  0.00000000  0.00000000       0.003
   0.20000000  0.00000000  0.00000000       0.003
   0.30000000  0.00000000  0.00000000       0.003
   0.40000000  0.00000000  0.00000000       0.003
   0.50000000  0.00000000  0.00000000       0.002
   0.00000000  0.16666667  0.00000000       0.003
   0.10000000  0.16666667  0.00000000       0.003
   0.20000000  0.16666667  0.00000000       0.003
   0.30000000  0.16666667  0.00000000       0.003
   0.40000000  0.16666667  0.00000000       0.003
   0.50000000  0.16666667  0.00000000       0.003
  -0.40000000  0.16666667  0.00000000       0.003
  -0.30000000  0.16666667  0.00000000       0.003
  -0.20000000  0.16666667  0.00000000       0.003
  -0.10000000  0.16666667  0.00000000       0.003
   0.00000000  0.33333333  0.00000000       0.003
   0.10000000  0.33333333  0.00000000       0.003
   0.20000000  0.33333333  0.00000000       0.003
   0.30000000  0.33333333  0.00000000       0.003
   0.40000000  0.33333333  0.00000000       0.003
   0.50000000  0.33333333  0.00000000       0.003
  -0.40000000  0.33333333  0.00000000       0.003
  -0.30000000  0.33333333  0.00000000       0.003
  -0.20000000  0.33333333  0.00000000       0.003
  -0.10000000  0.33333333  0.00000000       0.003
   0.00000000  0.50000000  0.00000000       0.002
   0.10000000  0.50000000  0.00000000       0.003
   0.20000000  0.50000000  0.00000000       0.003
   0.30000000  0.50000000  0.00000000       0.003
   0.40000000  0.50000000  0.00000000       0.003
   0.50000000  0.50000000  0.00000000       0.002
   0.00000000  0.00000000  0.10000000       0.003
   0.10000000  0.00000000  0.10000000       0.003
   0.20000000  0.00000000  0.10000000       0.003
   0.30000000  0.00000000  0.10000000       0.003
   0.40000000  0.00000000  0.10000000       0.003
   0.50000000  0.00000000  0.10000000       0.003
  -0.40000000  0.00000000  0.10000000       0.003
  -0.30000000  0.00000000  0.10000000       0.003
  -0.20000000  0.00000000  0.10000000       0.003
  -0.10000000  0.00000000  0.10000000       0.003
   0.00000000  0.16666667  0.10000000       0.003
   0.10000000  0.16666667  0.10000000       0.003
   0.20000000  0.16666667  0.10000000       0.003
   0.30000000  0.16666667  0.10000000       0.003
   0.40000000  0.16666667  0.10000000       0.003
   0.50000000  0.16666667  0.10000000       0.003
  -0.40000000  0.16666667  0.10000000       0.003
  -0.30000000  0.16666667  0.10000000       0.003
  -0.20000000  0.16666667  0.10000000       0.003
  -0.10000000  0.16666667  0.10000000       0.003
   0.00000000  0.33333333  0.10000000       0.003
   0.10000000  0.33333333  0.10000000       0.003
   0.20000000  0.33333333  0.10000000       0.003
   0.30000000  0.33333333  0.10000000       0.003
   0.40000000  0.33333333  0.10000000       0.003
   0.50000000  0.33333333  0.10000000       0.003
  -0.40000000  0.33333333  0.10000000       0.003
  -0.30000000  0.33333333  0.10000000       0.003
  -0.20000000  0.33333333  0.10000000       0.003
  -0.10000000  0.33333333  0.10000000       0.003
   0.00000000  0.50000000  0.10000000       0.003
   0.10000000  0.50000000  0.10000000       0.003
   0.20000000  0.50000000  0.10000000       0.003
   0.30000000  0.50000000  0.10000000       0.003
   0.40000000  0.50000000  0.10000000       0.003
   0.50000000  0.50000000  0.10000000       0.003
  -0.40000000  0.50000000  0.10000000       0.003
  -0.30000000  0.50000000  0.10000000       0.003
  -0.20000000  0.50000000  0.10000000       0.003
  -0.10000000  0.50000000  0.10000000       0.003
   0.00000000 -0.33333333  0.10000000       0.003
   0.10000000 -0.33333333  0.10000000       0.003
   0.20000000 -0.33333333  0.10000000       0.003
   0.30000000 -0.33333333  0.10000000       0.003
   0.40000000 -0.33333333  0.10000000       0.003
   0.50000000 -0.33333333  0.10000000       0.003
  -0.40000000 -0.33333333  0.10000000       0.003
  -0.30000000 -0.33333333  0.10000000       0.003
  -0.20000000 -0.33333333  0.10000000       0.003
  -0.10000000 -0.33333333  0.10000000       0.003
   0.00000000 -0.16666667  0.10000000       0.003
   0.10000000 -0.16666667  0.10000000       0.003
   0.20000000 -0.16666667  0.10000000       0.003
   0.30000000 -0.16666667  0.10000000       0.003
   0.40000000 -0.16666667  0.10000000       0.003
   0.50000000 -0.16666667  0.10000000       0.003
  -0.40000000 -0.16666667  0.10000000       0.003
  -0.30000000 -0.16666667  0.10000000       0.003
  -0.20000000 -0.16666667  0.10000000       0.003
  -0.10000000 -0.16666667  0.10000000       0.003
   0.00000000  0.00000000  0.20000000       0.003
   0.10000000  0.00000000  0.20000000       0.003
   0.20000000  0.00000000  0.20000000       0.003
   0.30000000  0.00000000  0.20000000       0.003
   0.40000000  0.00000000  0.20000000       0.003
   0.50000000  0.00000000  0.20000000       0.003
  -0.40000000  0.00000000  0.20000000       0.003
  -0.30000000  0.00000000  0.20000000       0.003
  -0.20000000  0.00000000  0.20000000       0.003
  -0.10000000  0.00000000  0.20000000       0.003
   0.00000000  0.16666667  0.20000000       0.003
   0.10000000  0.16666667  0.20000000       0.003
   0.20000000  0.16666667  0.20000000       0.003
   0.30000000  0.16666667  0.20000000       0.003
   0.40000000  0.16666667  0.20000000       0.003
   0.50000000  0.16666667  0.20000000       0.003
  -0.40000000  0.16666667  0.20000000       0.003
  -0.30000000  0.16666667  0.20000000       0.003
  -0.20000000  0.16666667  0.20000000       0.003
  -0.10000000  0.16666667  0.20000000       0.003
   0.00000000  0.33333333  0.20000000       0.003
   0.10000000  0.33333333  0.20000000       0.003
   0.20000000  0.33333333  0.20000000       0.003
   0.30000000  0.33333333  0.20000000       0.003
   0.40000000  0.33333333  0.20000000       0.003
   0.50000000  0.33333333  0.20000000       0.003
  -0.40000000  0.33333333  0.20000000       0.003
  -0.30000000  0.33333333  0.20000000       0.003
  -0.20000000  0.33333333  0.20000000       0.003
  -0.10000000  0.33333333  0.20000000       0.003
   0.00000000  0.50000000  0.20000000       0.003
   0.10000000  0.50000000  0.20000000       0.003
   0.20000000  0.50000000  0.20000000       0.003
   0.30000000  0.50000000  0.20000000       0.003
   0.40000000  0.50000000  0.20000000       0.003
   0.50000000  0.50000000  0.20000000       0.003
  -0.40000000  0.50000000  0.20000000       0.003
  -0.30000000  0.50000000  0.20000000       0.003
  -0.20000000  0.50000000  0.20000000       0.003
  -0.10000000  0.50000000  0.20000000       0.003
   0.00000000 -0.33333333  0.20000000       0.003
   0.10000000 -0.33333333  0.20000000       0.003
   0.20000000 -0.33333333  0.20000000       0.003
   0.30000000 -0.33333333  0.20000000       0.003
   0.40000000 -0.33333333  0.20000000       0.003
   0.50000000 -0.33333333  0.20000000       0.003
  -0.40000000 -0.33333333  0.20000000       0.003
  -0.30000000 -0.33333333  0.20000000       0.003
  -0.20000000 -0.33333333  0.20000000       0.003
  -0.10000000 -0.33333333  0.20000000       0.003
   0.00000000 -0.16666667  0.20000000       0.003
   0.10000000 -0.16666667  0.20000000       0.003
   0.20000000 -0.16666667  0.20000000       0.003
   0.30000000 -0.16666667  0.20000000       0.003
   0.40000000 -0.16666667  0.20000000       0.003
   0.50000000 -0.16666667  0.20000000       0.003
  -0.40000000 -0.16666667  0.20000000       0.003
  -0.30000000 -0.16666667  0.20000000       0.003
  -0.20000000 -0.16666667  0.20000000       0.003
  -0.10000000 -0.16666667  0.20000000       0.003
   0.00000000  0.00000000  0.30000000       0.003
   0.10000000  0.00000000  0.30000000       0.003
   0.20000000  0.00000000  0.30000000       0.003
   0.30000000  0.00000000  0.30000000       0.003
   0.40000000  0.00000000  0.30000000       0.003
   0.50000000  0.00000000  0.30000000       0.003
  -0.40000000  0.00000000  0.30000000       0.003
  -0.30000000  0.00000000  0.30000000       0.003
  -0.20000000  0.00000000  0.30000000       0.003
  -0.10000000  0.00000000  0.30000000       0.003
   0.00000000  0.16666667  0.30000000       0.003
   0.10000000  0.16666667  0.30000000       0.003
   0.20000000  0.16666667  0.30000000       0.003
   0.30000000  0.16666667  0.30000000       0.003
   0.40000000  0.16666667  0.30000000       0.003
   0.50000000  0.16666667  0.30000000       0.003
  -0.40000000  0.16666667  0.30000000       0.003
  -0.30000000  0.16666667  0.30000000       0.003
  -0.20000000  0.16666667  0.30000000       0.003
  -0.10000000  0.16666667  0.30000000       0.003
   0.00000000  0.33333333  0.30000000       0.003
   0.10000000  0.33333333  0.30000000       0.003
   0.20000000  0.33333333  0.30000000       0.003
   0.30000000  0.33333333  0.30000000       0.003
   0.40000000  0.33333333  0.30000000       0.003
   0.50000000  0.33333333  0.30000000       0.003
  -0.40000000  0.33333333  0.30000000       0.003
  -0.30000000  0.33333333  0.30000000       0.003
  -0.20000000  0.33333333  0.30000000       0.003
  -0.10000000  0.33333333  0.30000000       0.003
   0.00000000  0.50000000  0.30000000       0.003
   0.10000000  0.50000000  0.30000000       0.003
   0.20000000  0.50000000  0.30000000       0.003
   0.30000000  0.50000000  0.30000000       0.003
   0.40000000  0.50000000  0.30000000       0.003
   0.50000000  0.50000000  0.30000000       0.003
  -0.40000000  0.50000000  0.30000000       0.003
  -0.30000000  0.50000000  0.30000000       0.003
  -0.20000000  0.50000000  0.30000000       0.003
  -0.10000000  0.50000000  0.30000000       0.003
   0.00000000 -0.33333333  0.30000000       0.003
   0.10000000 -0.33333333  0.30000000       0.003
   0.20000000 -0.33333333  0.30000000       0.003
   0.30000000 -0.33333333  0.30000000       0.003
   0.40000000 -0.33333333  0.30000000       0.003
   0.50000000 -0.33333333  0.30000000       0.003
  -0.40000000 -0.33333333  0.30000000       0.003
  -0.30000000 -0.33333333  0.30000000       0.003
  -0.20000000 -0.33333333  0.30000000       0.003
  -0.10000000 -0.33333333  0.30000000       0.003
   0.00000000 -0.16666667  0.30000000       0.003
   0.10000000 -0.16666667  0.30000000       0.003
   0.20000000 -0.16666667  0.30000000       0.003
   0.30000000 -0.16666667  0.30000000       0.003
   0.40000000 -0.16666667  0.30000000       0.003
   0.50000000 -0.16666667  0.30000000       0.003
  -0.40000000 -0.16666667  0.30000000       0.003
  -0.30000000 -0.16666667  0.30000000       0.003
  -0.20000000 -0.16666667  0.30000000       0.003
  -0.10000000 -0.16666667  0.30000000       0.003
   0.00000000  0.00000000  0.40000000       0.003
   0.10000000  0.00000000  0.40000000       0.003
   0.20000000  0.00000000  0.40000000       0.003
   0.30000000  0.00000000  0.40000000       0.003
   0.40000000  0.00000000  0.40000000       0.003
   0.50000000  0.00000000  0.40000000       0.003
  -0.40000000  0.00000000  0.40000000       0.003
  -0.30000000  0.00000000  0.40000000       0.003
  -0.20000000  0.00000000  0.40000000       0.003
  -0.10000000  0.00000000  0.40000000       0.003
   0.00000000  0.16666667  0.40000000       0.003
   0.10000000  0.16666667  0.40000000       0.003
   0.20000000  0.16666667  0.40000000       0.003
   0.30000000  0.16666667  0.40000000       0.003
   0.40000000  0.16666667  0.40000000       0.003
   0.50000000  0.16666667  0.40000000       0.003
  -0.40000000  0.16666667  0.40000000       0.003
  -0.30000000  0.16666667  0.40000000       0.003
  -0.20000000  0.16666667  0.40000000       0.003
  -0.10000000  0.16666667  0.40000000       0.003
   0.00000000  0.33333333  0.40000000       0.003
   0.10000000  0.33333333  0.40000000       0.003
   0.20000000  0.33333333  0.40000000       0.003
   0.30000000  0.33333333  0.40000000       0.003
   0.40000000  0.33333333  0.40000000       0.003
   0.50000000  0.33333333  0.40000000       0.003
  -0.40000000  0.33333333  0.40000000       0.003
  -0.30000000  0.33333333  0.40000000       0.003
  -0.20000000  0.33333333  0.40000000       0.003
  -0.10000000  0.33333333  0.40000000       0.003
   0.00000000  0.50000000  0.40000000       0.003
   0.10000000  0.50000000  0.40000000       0.003
   0.20000000  0.50000000  0.40000000       0.003
   0.30000000  0.50000000  0.40000000       0.003
   0.40000000  0.50000000  0.40000000       0.003
   0.50000000  0.50000000  0.40000000       0.003
  -0.40000000  0.50000000  0.40000000       0.003
  -0.30000000  0.50000000  0.40000000       0.003
[...]
  302          set_rsgf_all                          0.000002                          2   4
  303          m_sumb_d                              1.124182                         14   4
  304        fft3d_mpi                             0.010228                           44   3
  305          fftbrc_mpi                            0.009858                         44   4
  306            fftbas_plan_mpi                       0.009840                       44   5
  307              dfftw_execute                         0.002099                    132   6
  308              map_forward                           0.003421                     40   6
  309                map_gather                            0.000155                   20   7
  310                m_alltoallv_z                         0.003019                   20   7
  311                map_scatter                           0.000206                   20   7
  312              map_backward                          0.003911                     48   6
  313                map_gather                            0.000174                   24   7
  314                m_alltoallv_z                         0.003494                   24   7
  315                map_scatter                           0.000204                   24   7
  316        m_sumb_d                              0.000230                           10   3
  317        forhar                                0.001145                            4   3
  318          m_sumb_d                              0.000178                          4   4
  319        chggra                                0.002524                            2   3
  320          fft3d_mpi                             0.001095                          6   4
  321            fftbrc_mpi                            0.001043                        6   5
  322              fftbas_plan_mpi                       0.001040                      6   6
  323                dfftw_execute                         0.000250                   18   7
  324                map_backward                          0.000232                    4   7
  325                  map_gather                            0.000014                  2   8
  326                  m_alltoallv_z                         0.000200                  2   8
  327                  map_scatter                           0.000018                  2   8
  328                map_forward                           0.000516                    8   7
  329                  map_gather                            0.000028                  4   8
  330                  m_alltoallv_z                         0.000452                  4   8
  331                  map_scatter                           0.000028                  4   8
  332          m_sumb_d                              0.000032                          4   4
  333          pothar                                0.000564                          2   4
  334            m_sumb_d                              0.000293                        2   5
  335        brmix                                 0.001120                            2   3
  336          m_sumb_d                              0.000118                         12   4
  337          brpre                                 0.000023                          4   4
  338          setg0                                 0.000381                          2   4
  339          broyd                                 0.000407                          2   4
  340            m_sumb_d                              0.000209                       23   5
  341            brsav                                 0.000021                       20   5
  342            brget                                 0.000043                       63   5
  343        m_bcast_d                             0.000096                            4   3
  344      potlok                                0.051604                              2   2
  345        fft3d_mpi                             0.011792                           52   3
  346          fftbrc_mpi                            0.010108                         52   4
  347            fftbas_plan_mpi                       0.010087                       52   5
  348              dfftw_execute                         0.002129                    156   6
  349              map_forward                           0.004435                     56   6
  350                map_gather                            0.000201                   32   7
  351                m_alltoallv_z                         0.003916                   32   7
  352                map_scatter                           0.000269                   32   7
  353              map_backward                          0.003127                     48   6
  354                map_gather                            0.000137                   24   7
  355                m_alltoallv_z                         0.002761                   24   7
  356                map_scatter                           0.000184                   24   7
  357        m_sumb_d                              0.000228                           10   3
  358        pothar                                0.000383                            2   3
  359          m_sumb_d                              0.000105                          2   4
  360        m_bcast_d                             0.002599                            4   3
  361      potlok_metagga                        0.000000                              2   2
  362      set_dd_magatom                        0.000000                              2   2
  363      set_dd_paw                            1.098556                              2   2
  364        set_rsgf_all                          0.000001                            2   3
  365        m_sumb_d                              1.098355                           14   3
  366      m_sumb_d                              2.371443                          38917   2
  367      wavpre_noio                           0.001213                              1   2
  368        stufak                                0.000094                            1   3
  369      densta                                0.450398                              1   2
  370        m_sumb_d                              0.064181                           33   3
  371        m_alltoall_d                          0.380030                            4   3
  372      m_alltoall_d                          0.000306                              2   2
 
 Flat profile
 ============
 
             routine name                   CPU           calls
 ---------------------------------------------------------------
 pdssyex_zheevx                         36.233371        6688
 lapack                                 21.368740       10191
 fft3d                                  17.247047      120100
 m_alltoall_d                           16.590576      287331
 m_sumb_d                               13.480797       50002
 total_time                              7.036131           1
 gemm                                    5.666884      363380
 fftext_mpi                              5.495460       47282
 m_bcast_z                               3.566876       49105
 phase                                   3.125014        7906
 fornl                                   3.111068           2
 vhamil                                  2.158608       47282
 proj1                                   2.074549       36338
 eccp                                    1.729061       50467
 fftwav                                  1.288507       72818
 w1_copy                                 1.175849      109014
 redis_pw                                1.138000       60365
 orth1                                   1.133322       42733
 work_mul_crexp                          1.123204      363380
 w1_dscal                                0.847580       71756
 w1_daxpy                                0.819251       52294
 eddav                                   0.809239           2
 sphpro_fast                             0.723303           3
 choleski                                0.687795        6688
 lincom                                  0.624025       13376
 w1_gaxpy                                0.502575       46832
 crexp_mul_wave                          0.477882       72676
 w1_gemv                                 0.409340       71424
 eddiag                                  0.407394           9
 ggemm                                   0.357328       12623
 m_bcast_d                               0.336434       20419
 pw_charge                               0.308478       14592
 potlok                                  0.240604          13
 spher                                   0.238564           1
 vnlac0                                  0.226444       36338
 i2                                      0.218682       14605
 apply_precond                           0.207101       65535
 kinhamil                                0.184218       47282
 overl1                                  0.174692       72050
 orthch                                  0.169428          11
 hamiltmu                                0.139890       24796
 eccp_nl                                 0.103875       37091
 overl                                   0.095092       30110
 cnorma                                  0.090214       37091
 redis_proj                              0.085767       74812
 setup_precond                           0.071804       13376
 m_alltoallv_z                           0.071187         488
 zhegv                                   0.065754       15203
 elmin                                   0.063911           2
 setdij_                                 0.063333          28
 i3                                      0.058345       14605
 eddrmm                                  0.057351           9
 fft3d_mpi                               0.041059       47720
 soft_charge                             0.040833          12
 newband                                 0.037709       31484
 force_and_stress                        0.037353           2
 depsum                                  0.036616          12
 w1_dot                                  0.033287       10944
 fftwav_mpi                              0.029830       72818
 w1_projall                              0.028855       22364
 densta                                  0.023277          12
 augmentation_charge                     0.020154          12
 dfftw_execute                           0.017307        1314
 i1                                      0.011253       14605
 hamilt_local                            0.008976       10944
 truncate_high_frequency_w1              0.004977       49714
 map_scatter                             0.004670         488
 map_gather                              0.004652         488
 fftbas_plan_mpi                         0.004199         438
 rsp                                     0.003547           2
 proj                                    0.002267         608
 pothar                                  0.002090          15
 set_dd_paw                              0.001576          15
 setg0                                   0.001527          15
 brmix                                   0.001261          11
 wavpre_noio                             0.001119           1
 forhar                                  0.000967           4
 chggra                                  0.000833           2
 fewald                                  0.000818           2
 set_charge                              0.000677          12
 broyd                                   0.000662          11
 shift_bands_between_low_high            0.000595        5472
 stufak                                  0.000484           2
 map_backward                            0.000481         460
 brgrid                                  0.000463           1
 proall                                  0.000433           2
 map_forward                             0.000398         416
 forloc                                  0.000277           2
 fft_gq                                  0.000212          12
 fftbrc_mpi                              0.000177         438
 brpre                                   0.000154          22
 brget                                   0.000146         212
 brsav                                   0.000075          81
 fordep                                  0.000067           2
 rcp                                     0.000038           2
 set_rsgf_all                            0.000035          15
 crpa_reader                             0.000029           1
 FERMAT_RAZOR                            0.000008           1
 potlok_metagga                          0.000002          13
 rotate_active_occupied_orbital          0.000002           2
 vectorpot                               0.000001          12
 set_dd_magatom                          0.000000          15
 redis_pw_over_bands                     0.000000           2
 ---------------------------------------------------------------
  summed up times     155.0863718986511     
 
 Accumulative profile
 ====================
 
             routine name                   CPU           calls
 ---------------------------------------------------------------
 total_time                            155.086372           1
 elmin                                 133.535912           2
 eddav                                  48.815271           2
 eddiag                                 39.875206           9
 pdssyex_zheevx                         36.233379        6688
 eddrmm                                 32.026257           9
 lapack                                 21.368740       10191
 hamiltmu                               19.560190       24796
 fft3d                                  17.247047      120100
 m_alltoall_d                           16.590576      287331
 m_sumb_d                               13.480797       50002
 kinhamil                               12.484703       47282
 fftext_mpi                             12.300484       47282
 fftwav_mpi                             11.780252       72818
 fftwav                                 11.750422       72818
 set_dd_paw                              8.232431          15
 vnlac0                                  7.016532       36338
 fft3d_mpi                               6.929261       47720
 redis_pw                                6.781962       60365
 i2                                      6.172929       14605
 orthch                                  5.877806          11
 redis_proj                              5.687190       74812
 gemm                                    5.666884      363380
 force_and_stress                        5.135097           2
 m_bcast_z                               3.566876       49105
 fornl                                   3.454686           2
 i3                                      3.364422       14605
 newband                                 3.178084       31484
 phase                                   3.125014        7906
 set_charge                              2.765121          12
 soft_charge                             2.697437          12
 proj1                                   2.552431       36338
 w1_projall                              2.415531       22364
 hamilt_local                            2.347282       10944
 vhamil                                  2.158608       47282
 eccp                                    1.729061       50467
 w1_copy                                 1.175849      109014
 orth1                                   1.133322       42733
 work_mul_crexp                          1.123204      363380
 w1_dscal                                0.847580       71756
 w1_daxpy                                0.819251       52294
 sphpro_fast                             0.804780           3
 choleski                                0.687795        6688
 lincom                                  0.624025       13376
 w1_gaxpy                                0.502575       46832
 densta                                  0.487528          12
 w1_gemv                                 0.485268       71424
 crexp_mul_wave                          0.477882       72676
 proall                                  0.406203           2
 ggemm                                   0.357328       12623
 potlok                                  0.355863          13
 m_bcast_d                               0.336434       20419
 pw_charge                               0.308478       14592
 spher                                   0.238564           1
 apply_precond                           0.207101       65535
 cnorma                                  0.194088       37091
 overl1                                  0.174692       72050
 proj                                    0.168022         608
 i1                                      0.160505       14605
 eccp_nl                                 0.103875       37091
 fftbrc_mpi                              0.103071         438
 fftbas_plan_mpi                         0.102894         438
 overl                                   0.095092       30110
 setdij_                                 0.094923          28
 setup_precond                           0.071804       13376
 m_alltoallv_z                           0.071187         488
 zhegv                                   0.065754       15203
 map_backward                            0.044626         460
 depsum                                  0.039973          12
 map_forward                             0.036762         416
 w1_dot                                  0.033287       10944
 augmentation_charge                     0.027033          12
 fordep                                  0.025725           2
 dfftw_execute                           0.017307        1314
 fft_gq                                  0.016059          12
 brmix                                   0.005683          11
 fewald                                  0.005036           2
 truncate_high_frequency_w1              0.004977       49714
 map_scatter                             0.004670         488
 map_gather                              0.004652         488
 rsp                                     0.003547           2
 pothar                                  0.003284          15
 chggra                                  0.002524           2
 broyd                                   0.001763          11
 setg0                                   0.001527          15
 wavpre_noio                             0.001213           1
 forhar                                  0.001145           4
 shift_bands_between_low_high            0.000595        5472
 stufak                                  0.000484           2
 brgrid                                  0.000463           1
 forloc                                  0.000429           2
 brpre                                   0.000154          22
 brget                                   0.000146         212
 brsav                                   0.000075          81
 rcp                                     0.000038           2
 set_rsgf_all                            0.000035          15
 crpa_reader                             0.000029           1
 FERMAT_RAZOR                            0.000008           1
 potlok_metagga                          0.000002          13
 rotate_active_occupied_orbital          0.000002           2
 vectorpot                               0.000001          12
 set_dd_magatom                          0.000000          15
 redis_pw_over_bands                     0.000000           2
 ---------------------------------------------------------------
 
Profiling took   0.348517  0.237590  0.003541  0.003454 seconds
Profiling took   0.274885 seconds
