 vasp.6.3.2 27Jun22 (build Jul  3 2023 11:46:21) complex                         
 executed on    LinuxNV_CrayMPICH date 2024.04.21  21:29:40
 running on    4 total cores
 distrk:  each k-point on    4 cores,    1 groups
 distr:  one band on NCORE=   1 cores,    4 groups


--------------------------------------------------------------------------------------------------------


 INCAR:
   ADDGRID = True
   ALGO = Normal
   EDIFF = 0.0006
   ENCUT = 520.0
   IBRION = -1
   ICHARG = 0
   ISIF = 3
   ISMEAR = -5
   ISPIN = 2
   KPOINT_BSE = -1 0 0 0
   LAECHG = True
   LASPH = True
   LCHARG = True
   LELF = True
   LORBIT = 11
   LREAL = Auto
   LVHAR = True
   LWAVE = False
   MAGMOM = 4*7.0 8*0.6
   NELM = 1000
   NSW = 0
   PREC = accurate
   SIGMA = 0.05

 POTCAR:    PAW_PBE Gd 23Dec2003                  
 POTCAR:    PAW_PBE Re_pv 06Sep2000               
 POTCAR:    PAW_PBE Gd 23Dec2003                  
   SHA256 =  58854b40b4643190560b0e2b62d2ab46bea96585f82c6231a0f4f44b8c3188dc Gd/POTCAR             
   COPYR  = (c) Copyright 23Dec2003 Georg Kresse                                                    
   COPYR  = This file is part of the software VASP. Any use, copying, and all other rights are regul
   COPYR  = If you do not have a valid VASP license, you may not use, copy or distribute this file. 
   VRHFIN =Gd : [core=Xe4]                                                                          
   LEXCH  = PE                                                                                      
   EATOM  =  3047.6032 eV,  223.9925 Ry                                                             
                                                                                                    
   TITEL  = PAW_PBE Gd 23Dec2003                                                                    
   LULTRA =        F    use ultrasoft PP ?                                                          
   IUNSCR =        1    unscreen: 0-lin 1-nonlin 2-no                                               
   RPACOR =    2.300    partial core radius                                                         
   POMASS =  157.250; ZVAL   =   18.000    mass and valenz                                          
   RCORE  =    2.800    outmost cutoff radius                                                       
   RWIGS  =    2.800; RWIGS  =    1.482    wigner-seitz radius (au A)                               
   ENMAX  =  256.472; ENMIN  =  192.354 eV                                                          
   RCLOC  =    2.316    cutoff for local pot                                                        
   LCOR   =        T    correct aug charges                                                         
   LPAW   =        T    paw PP                                                                      
   EAUG   =  537.243                                                                                
   DEXC   =    0.000                                                                                
   RMAX   =    2.857    core radius for proj-oper                                                   
   RAUG   =    1.300    factor for augmentation sphere                                              
   RDEP   =    2.921    radius for radial grids                                                     
   RDEPT  =    2.247    core radius for aug-charge                                                  
                                                                                                    
   Atomic configuration                                                                             
   14 entries                                                                                       
     n  l   j            E        occ.                                                              
     1  0  0.50    -50087.2354   2.0000                                                             
     2  0  0.50     -8269.2182   2.0000                                                             
     2  1  1.50     -7357.3672   6.0000                                                             
     3  0  0.50     -1833.2681   2.0000                                                             
     3  1  1.50     -1550.9376   6.0000                                                             
     3  2  2.50     -1178.7204  10.0000                                                             
     4  0  0.50      -369.2978   2.0000                                                             
     4  1  1.50      -276.2601   6.0000                                                             
     4  2  2.50      -147.6611  10.0000                                                             
     5  0  0.50       -49.7260   2.0000                                                             
     6  0  0.50        -4.1254   2.0000                                                             
     5  1  1.50       -27.2538   6.0000                                                             
     5  2  2.50        -2.5337   1.0000                                                             
     4  3  2.50        -8.7140   7.0000                                                             
   Description                                                                                      
     l       E           TYP  RCUT    TYP  RCUT                                                     
     0    -49.7259557     23  2.400                                                                 
     0     -4.1254107     23  2.400                                                                 
     1    -27.2537518     23  2.400                                                                 
     1     20.4087390     23  2.400                                                                 
     2     -2.5337329     23  2.500                                                                 
     2     13.6058260     23  2.500                                                                 
     3     -8.7140389     23  2.800                                                                 
     3     -9.5240782     23  2.800                                                                 
  local pseudopotential read in
  partial core-charges read in
  partial kinetic energy density read in
  atomic valenz-charges read in
  non local Contribution for L=            0  read in
    real space projection operators read in
  non local Contribution for L=            0  read in
    real space projection operators read in
  non local Contribution for L=            1  read in
    real space projection operators read in
  non local Contribution for L=            1  read in
    real space projection operators read in
  non local Contribution for L=            2  read in
    real space projection operators read in
  non local Contribution for L=            2  read in
    real space projection operators read in
  non local Contribution for L=            3  read in
    real space projection operators read in
  non local Contribution for L=            3  read in
    real space projection operators read in
    PAW grid and wavefunctions read in
 
   number of l-projection  operators is LMAX  =            8
   number of lm-projection operators is LMMAX =           32
 
 POTCAR:    PAW_PBE Re_pv 06Sep2000               
   SHA256 =  9136fabd3a1e35b9fb4b1f356ef358c338d3d4e46f3e96ab15e45974af27d0c0 Re_pv/POTCAR          
   COPYR  = (c) Copyright 06Sep2000 Georg Kresse                                                    
   COPYR  = This file is part of the software VASP. Any use, copying, and all other rights are regul
   COPYR  = If you do not have a valid VASP license, you may not use, copy or distribute this file. 
   VRHFIN =Re: 5p6s5d                                                                               
   LEXCH  = PE                                                                                      
   EATOM  =  1505.3444 eV,  110.6397 Ry                                                             
                                                                                                    
   TITEL  = PAW_PBE Re_pv 06Sep2000                                                                 
   LULTRA =        F    use ultrasoft PP ?                                                          
   IUNSCR =        1    unscreen: 0-lin 1-nonlin 2-no                                               
   RPACOR =    2.250    partial core radius                                                         
   POMASS =  186.207; ZVAL   =   13.000    mass and valenz                                          
   RCORE  =    2.500    outmost cutoff radius                                                       
   RWIGS  =    2.710; RWIGS  =    1.434    wigner-seitz radius (au A)                               
   ENMAX  =  226.216; ENMIN  =  169.662 eV                                                          
   RCLOC  =    2.105    cutoff for local pot                                                        
   LCOR   =        T    correct aug charges                                                         
   LPAW   =        T    paw PP                                                                      
   EAUG   =  370.280                                                                                
   DEXC   =    0.000                                                                                
   RMAX   =    2.555    core radius for proj-oper                                                   
   RAUG   =    1.300    factor for augmentation sphere                                              
   RDEP   =    2.550    radius for radial grids                                                     
   RDEPT  =    2.135    core radius for aug-charge                                                  
                                                                                                    
   Atomic configuration                                                                             
   15 entries                                                                                       
     n  l   j            E        occ.                                                              
     1  0  0.50    -71633.0044   2.0000                                                             
     2  0  0.50    -12416.1217   2.0000                                                             
     2  1  1.50    -10832.4225   6.0000                                                             
     3  0  0.50     -2872.9330   2.0000                                                             
     3  1  1.50     -2406.1720   6.0000                                                             
     3  2  2.50     -1877.8916  10.0000                                                             
     4  0  0.50      -597.8463   2.0000                                                             
     4  1  1.50      -444.7999   6.0000                                                             
     4  2  2.50      -252.9937  10.0000                                                             
     4  3  3.50       -40.1243  14.0000                                                             
     5  0  0.50       -83.0609   2.0000                                                             
     5  1  1.50       -44.9781   6.0000                                                             
     5  2  2.50        -4.0055   6.0000                                                             
     6  0  0.50        -5.2962   1.0000                                                             
     5  3  2.50        -1.3606   0.0000                                                             
   Description                                                                                      
     l       E           TYP  RCUT    TYP  RCUT                                                     
     1    -44.9781306     23  2.500                                                                 
     1     -4.0817478     23  2.500                                                                 
     2     -4.0054946     23  2.500                                                                 
     2     -2.6236529     23  2.500                                                                 
     0     -5.2961845     23  2.500                                                                 
     0      4.1641164     23  2.500                                                                 
  local pseudopotential read in
  partial core-charges read in
  partial kinetic energy density read in
  atomic valenz-charges read in
  non local Contribution for L=            1  read in
    real space projection operators read in
  non local Contribution for L=            1  read in
    real space projection operators read in
  non local Contribution for L=            2  read in
    real space projection operators read in
  non local Contribution for L=            2  read in
    real space projection operators read in
  non local Contribution for L=            0  read in
    real space projection operators read in
  non local Contribution for L=            0  read in
    real space projection operators read in
    PAW grid and wavefunctions read in
 
   number of l-projection  operators is LMAX  =            6
   number of lm-projection operators is LMMAX =           18
 
 Optimization of the real space projectors (new method)

 maximal supplied QI-value         = 13.42
 optimisation between [QCUT,QGAM] = [ 11.67, 23.35] = [ 38.16,152.62] Ry 
 Optimized for a Real-space Cutoff    1.63 Angstroem

   l    n(q)    QCUT    max X(q) W(low)/X(q) W(high)/X(q)  e(spline) 
   0     11    11.673    10.501    0.14E-04    0.17E-05    0.21E-07
   0     11    11.673     9.148    0.21E-04    0.32E-05    0.45E-07
   1     11    11.673     4.035    0.33E-05    0.11E-04    0.84E-07
   1     11    11.673     4.388    0.11E-04    0.47E-04    0.34E-06
   2     10    11.673    20.656    0.12E-04    0.28E-04    0.54E-06
   2     10    11.673    12.651    0.11E-04    0.26E-04    0.51E-06
   3     10    11.673    61.921    0.19E-03    0.22E-03    0.23E-06
   3     10    11.673    48.328    0.20E-03    0.23E-03    0.23E-06
 Optimization of the real space projectors (new method)

 maximal supplied QI-value         = 15.12
 optimisation between [QCUT,QGAM] = [ 11.64, 23.28] = [ 37.95,151.78] Ry 
 Optimized for a Real-space Cutoff    1.53 Angstroem

   l    n(q)    QCUT    max X(q) W(low)/X(q) W(high)/X(q)  e(spline) 
   1     10    11.641     4.536    0.53E-04    0.11E-04    0.10E-06
   1     10    11.641     5.174    0.11E-03    0.39E-04    0.25E-06
   2     10    11.641   884.986    0.18E-03    0.55E-03    0.12E-05
   2     10    11.641   788.248    0.18E-03    0.55E-03    0.12E-05
   0     11    11.641    79.269    0.41E-04    0.98E-04    0.47E-06
   0     11    11.641    46.212    0.38E-04    0.91E-04    0.44E-06
  PAW_PBE Gd 23Dec2003                  :
 energy of atom  1       EATOM=-3047.6032
 kinetic energy error for atom=    0.0019 (will be added to EATOM!!)
  PAW_PBE Re_pv 06Sep2000               :
 energy of atom  2       EATOM=-1505.3444
 kinetic energy error for atom=    0.0025 (will be added to EATOM!!)
 
 
 POSCAR: Gd4 Re8
  positions in direct lattice
  No initial velocities read in
 exchange correlation table for  LEXCH =        8
   RHO(1)=    0.500       N(1)  =     2000
   RHO(2)=  100.500       N(2)  =     4000

 VTST: version 4.2, (08/11/21)

 CHAIN: initializing optimizer
 
 OPT: Using VASP Dynamics algorithm
 CHAIN: Read ICHAIN             0
 
 POSCAR: Gd4 Re8
  positions in direct lattice
  No initial velocities read in
 


--------------------------------------------------------------------------------------------------------


 ion  position               nearest neighbor table
   1  0.333  0.667  0.437-  10 3.17  11 3.17  12 3.17   9 3.19   8 3.19   7 3.19   7 3.19   9 3.19
                             8 3.19   5 3.20   5 3.20   5 3.20   4 3.32   2 3.34   2 3.34   2 3.34
   2  0.667  0.333  0.563-   7 3.17   8 3.17   9 3.17  11 3.19  12 3.19  10 3.19  10 3.19  11 3.19
                            12 3.19   5 3.20   5 3.20   5 3.20   3 3.32   1 3.34   1 3.34   1 3.34
   3  0.667  0.333  0.937-   7 3.17   8 3.17   9 3.17  11 3.19  12 3.19  10 3.19  10 3.19  11 3.19
                            12 3.19   6 3.20   6 3.20   6 3.20   2 3.32   4 3.34   4 3.34   4 3.34
   4  0.333  0.667  0.063-  10 3.17  11 3.17  12 3.17   9 3.19   8 3.19   7 3.19   7 3.19   9 3.19
                             8 3.19   6 3.20   6 3.20   6 3.20   1 3.32   3 3.34   3 3.34   3 3.34
   5  0.000  0.000  0.500-   7 2.74  10 2.74   9 2.74  12 2.74  11 2.74   8 2.74   1 3.20   2 3.20
                             2 3.20   1 3.20   2 3.20   1 3.20
   6  0.000  0.000  0.000-   7 2.74  10 2.74   9 2.74  12 2.74  11 2.74   8 2.74   3 3.20   4 3.20
                             3 3.20   4 3.20   3 3.20   4 3.20
   7  0.829  0.171  0.250-   8 2.66   9 2.66   5 2.74   6 2.74   9 2.80   8 2.80   3 3.17   2 3.17
                             1 3.19   1 3.19   4 3.19   4 3.19
   8  0.829  0.658  0.250-   7 2.66   9 2.66   5 2.74   6 2.74   7 2.80   9 2.80   2 3.17   3 3.17
                             4 3.19   1 3.19   1 3.19   4 3.19
   9  0.342  0.171  0.250-   7 2.66   8 2.66   5 2.74   6 2.74   7 2.80   8 2.80   2 3.17   3 3.17
                             1 3.19   4 3.19   1 3.19   4 3.19
  10  0.171  0.829  0.750-  11 2.66  12 2.66   5 2.74   6 2.74  11 2.80  12 2.80   4 3.17   1 3.17
                             2 3.19   2 3.19   3 3.19   3 3.19
  11  0.171  0.342  0.750-  10 2.66  12 2.66   5 2.74   6 2.74  10 2.80  12 2.80   1 3.17   4 3.17
                             3 3.19   2 3.19   3 3.19   2 3.19
  12  0.658  0.829  0.750-  10 2.66  11 2.66   5 2.74   6 2.74  10 2.80  11 2.80   1 3.17   4 3.17
                             2 3.19   3 3.19   3 3.19   2 3.19
 
  LATTYP: Found a hexagonal cell.
 ALAT       =     5.4545595441
 C/A-ratio  =     1.6267386813
  
  Lattice vectors:
  
 A1 = (   2.7272800000,  -4.7237870000,   0.0000000000)
 A2 = (   2.7272800000,   4.7237870000,   0.0000000000)
 A3 = (   0.0000000000,   0.0000000000,   8.8731430000)


Analysis of symmetry for initial positions (statically):
=====================================================================
 Subroutine PRICEL returns:
 Original cell was already a primitive cell.
 

 Routine SETGRP: Setting up the symmetry group for a 
 hexagonal supercell.


 Subroutine GETGRP returns: Found 24 space group operations
 (whereof 12 operations were pure point group operations)
 out of a pool of 24 trial point group operations.


The static configuration has the point symmetry D_3d.
 The point group associated with its full space group is D_6h.


Analysis of symmetry for dynamics (positions and initial velocities):
=====================================================================
 Subroutine PRICEL returns:
 Original cell was already a primitive cell.
 

 Routine SETGRP: Setting up the symmetry group for a 
 hexagonal supercell.


 Subroutine GETGRP returns: Found 24 space group operations
 (whereof 12 operations were pure point group operations)
 out of a pool of 24 trial point group operations.


The dynamic configuration has the point symmetry D_3d.
 The point group associated with its full space group is D_6h.


Analysis of structural, dynamic, and magnetic symmetry:
=====================================================================
 Subroutine PRICEL returns:
 Original cell was already a primitive cell.
 

 Routine SETGRP: Setting up the symmetry group for a 
 hexagonal supercell.


 Subroutine GETGRP returns: Found 24 space group operations
 (whereof 12 operations were pure point group operations)
 out of a pool of 24 trial point group operations.


The overall configuration has the point symmetry D_3d.
 The point group associated with its full space group is D_6h.


 Subroutine INISYM returns: Found 24 space group operations
 (whereof 12 operations are pure point group operations),
 and found     1 'primitive' translations


----------------------------------------------------------------------------------------

                                     Primitive cell                                     

  volume of cell :     228.6270

  direct lattice vectors                    reciprocal lattice vectors
     2.727280000 -4.723787000  0.000000000     0.183332844 -0.105847279  0.000000000
     2.727280000  4.723787000  0.000000000     0.183332844  0.105847279 -0.000000000
     0.000000000  0.000000000  8.873143000    -0.000000000  0.000000000  0.112699638

  length of vectors
     5.454559544  5.454559544  8.873143000     0.211694540  0.211694540  0.112699638

  position of ions in fractional coordinates (direct lattice)
     0.333333000  0.666667000  0.437294000
     0.666667000  0.333333000  0.562706000
     0.666667000  0.333333000  0.937294000
     0.333333000  0.666667000  0.062706000
     0.000000000  0.000000000  0.500000000
     0.000000000  0.000000000  0.000000000
     0.829140000  0.170860000  0.250000000
     0.829140000  0.658280000  0.250000000
     0.341720000  0.170860000  0.250000000
     0.170860000  0.829140000  0.750000000
     0.170860000  0.341720000  0.750000000
     0.658280000  0.829140000  0.750000000

  ion indices of the primitive-cell ions
   primitive index   ion index
                 1           1
                 2           2
                 3           3
                 4           4
                 5           5
                 6           6
                 7           7
                 8           8
                 9           9
                10          10
                11          11
                12          12

----------------------------------------------------------------------------------------

 
 
 KPOINTS: Kpoints from vasprun.xml                

Automatic generation of k-mesh.
 Grid dimensions read from file:
 generate k-points for:    5    5    3

 Generating k-lattice:

  Cartesian coordinates                     Fractional coordinates (reciprocal lattice)
     0.036666569 -0.021169456  0.000000000     0.200000000  0.000000000  0.000000000
     0.036666569  0.021169456 -0.000000000     0.000000000  0.200000000  0.000000000
    -0.000000000  0.000000000  0.037566546     0.000000000  0.000000000  0.333333333

  Length of vectors
     0.042338908  0.042338908  0.037566546

  Shift w.r.t. Gamma in fractional coordinates (k-lattice)
     0.000000000  0.000000000  0.000000000

 TETIRR: Found     70 inequivalent tetrahedra from      450
 
 Subroutine IBZKPT returns following result:
 ===========================================
 
 Found     10 irreducible k-points:
 
 Following reciprocal coordinates:
            Coordinates               Weight
  0.000000  0.000000  0.000000      1.000000
  0.200000  0.000000  0.000000      6.000000
  0.400000  0.000000  0.000000      6.000000
  0.200000  0.200000  0.000000      6.000000
  0.400000  0.200000  0.000000      6.000000
  0.000000  0.000000  0.333333      2.000000
  0.200000  0.000000  0.333333     12.000000
  0.400000  0.000000  0.333333     12.000000
  0.200000  0.200000  0.333333     12.000000
  0.400000  0.200000  0.333333     12.000000
 
 Following cartesian coordinates:
            Coordinates               Weight
  0.000000  0.000000  0.000000      1.000000
  0.036667 -0.021169  0.000000      6.000000
  0.073333 -0.042339  0.000000      6.000000
  0.073333  0.000000  0.000000      6.000000
  0.110000 -0.021169  0.000000      6.000000
  0.000000  0.000000  0.037567      2.000000
  0.036667 -0.021169  0.037567     12.000000
  0.073333 -0.042339  0.037567     12.000000
  0.073333  0.000000  0.037567     12.000000
  0.110000 -0.021169  0.037567     12.000000
 


--------------------------------------------------------------------------------------------------------




 Dimension of arrays:
   k-points           NKPTS =     10   k-points in BZ     NKDIM =     10   number of bands    NBANDS=    124
   number of dos      NEDOS =    301   number of ions     NIONS =     12
   non local maximal  LDIM  =      8   non local SUM 2l+1 LMDIM =     32
   total plane-waves  NPLWV = 123480
   max r-space proj   IRMAX =   9797   max aug-charges    IRDMAX= 255770
   dimension x,y,z NGX =    42 NGY =   42 NGZ =   70
   dimension x,y,z NGXF=    84 NGYF=   84 NGZF=  140
   support grid    NGXF=   168 NGYF=  168 NGZF=  280
   ions per type =               4   8
   NGX,Y,Z   is equivalent  to a cutoff of  12.80, 12.80, 13.12 a.u.
   NGXF,Y,Z  is equivalent  to a cutoff of  25.60, 25.60, 26.23 a.u.

 SYSTEM =  unknown system                          
 POSCAR =  Gd4 Re8                                 

 Startparameter for this run:
   NWRITE =      2    write-flag & timer
   PREC   = accura    normal or accurate (medium, high low for compatibility)
   ISTART =      0    job   : 0-new  1-cont  2-samecut
   ICHARG =      0    charge: 1-file 2-atom 10-const
   ISPIN  =      2    spin polarized calculation?
   LNONCOLLINEAR =      F non collinear calculations
   LSORBIT =      F    spin-orbit coupling
   INIWAV =      1    electr: 0-lowe 1-rand  2-diag
   LASPH  =      T    aspherical Exc in radial PAW
 Electronic Relaxation 1
   ENCUT  =  520.0 eV  38.22 Ry    6.18 a.u.  10.14 10.14 16.50*2*pi/ulx,y,z
   ENINI  =  520.0     initial cutoff
   ENAUG  =  537.2 eV  augmentation charge cutoff
   NELM   =   1000;   NELMIN=  2; NELMDL= -5     # of ELM steps 
   EDIFF  = 0.6E-03   stopping-criterion for ELM
   LREAL  =      T    real-space projection
   NLSPLINE    = F    spline interpolate recip. space projectors
   LCOMPAT=      F    compatible to vasp.4.4
   GGA_COMPAT  = T    GGA compatible to vasp.4.4-vasp.4.6
   LMAXPAW     = -100 max onsite density
   LMAXMIX     =    2 max onsite mixed and CHGCAR
   VOSKOWN=      0    Vosko Wilk Nusair interpolation
   ROPT   =   -0.00025  -0.00025
 Ionic relaxation
   EDIFFG = 0.6E-02   stopping-criterion for IOM
   NSW    =      0    number of steps for IOM
   NBLOCK =      1;   KBLOCK =      1    inner block; outer block 
   IBRION =     -1    ionic relax: 0-MD 1-quasi-New 2-CG
   NFREE  =      0    steps in history (QN), initial steepest desc. (CG)
   ISIF   =      3    stress and relaxation
   IWAVPR =     10    prediction:  0-non 1-charg 2-wave 3-comb
   ISYM   =      2    0-nonsym 1-usesym 2-fastsym
   LCORR  =      T    Harris-Foulkes like correction to forces

   POTIM  = 0.5000    time-step for ionic-motion
   TEIN   =    0.0    initial temperature
   TEBEG  =    0.0;   TEEND  =   0.0 temperature during run
   SMASS  =  -3.00    Nose mass-parameter (am)
   estimated Nose-frequenzy (Omega)   =  0.10E-29 period in steps = 0.13E+47 mass=  -0.680E-27a.u.
   SCALEE = 1.0000    scale energy and forces
   NPACO  =    256;   APACO  = 10.0  distance and # of slots for P.C.
   PSTRESS=    0.0 pullay stress

  Mass of Ions in am
   POMASS = 157.25186.21
  Ionic Valenz
   ZVAL   =  18.00 13.00
  Atomic Wigner-Seitz radii
   RWIGS  =  -1.00 -1.00
  virtual crystal weights 
   VCA    =   1.00  1.00
   NELECT =     176.0000    total number of electrons
   NUPDOWN=      -1.0000    fix difference up-down

 DOS related values:
   EMIN   =  10.00;   EMAX   =-10.00  energy-range for DOS
   EFERMI =   0.00
   ISMEAR =    -5;   SIGMA  =   0.05  broadening in eV -4-tet -1-fermi 0-gaus

 Electronic relaxation 2 (details)
   IALGO  =     38    algorithm
   LDIAG  =      T    sub-space diagonalisation (order eigenvalues)
   LSUBROT=      F    optimize rotation matrix (better conditioning)
   TURBO    =      0    0=normal 1=particle mesh
   IRESTART =      0    0=no restart 2=restart with 2 vectors
   NREBOOT  =      0    no. of reboots
   NMIN     =      0    reboot dimension
   EREF     =   0.00    reference energy to select bands
   IMIX   =      4    mixing-type and parameters
     AMIX     =   0.40;   BMIX     =  1.00
     AMIX_MAG =   1.60;   BMIX_MAG =  1.00
     AMIN     =   0.10
     WC   =   100.;   INIMIX=   1;  MIXPRE=   1;  MAXMIX= -45

 Intra band minimization:
   WEIMIN = 0.0000     energy-eigenvalue tresh-hold
   EBREAK =  0.12E-05  absolut break condition
   DEPER  =   0.30     relativ break condition  

   TIME   =   0.40     timestep for ELM

  volume/ion in A,a.u.               =      19.05       128.57
  Fermi-wavevector in a.u.,A,eV,Ry     =   1.500387  2.835320 30.628896  2.251160
  Thomas-Fermi vector in A             =   2.611894
 
 Write flags
   LWAVE        =      F    write WAVECAR
   LDOWNSAMPLE  =      F    k-point downsampling of WAVECAR
   LCHARG       =      T    write CHGCAR
   LVTOT        =      F    write LOCPOT, total local potential
   LVHAR        =      T    write LOCPOT, Hartree potential only
   LELF         =      T    write electronic localiz. function (ELF)
   LORBIT       =     11    0 simple, 1 ext, 2 COOP (PROOUT), +10 PAW based schemes


 Dipole corrections
   LMONO  =      F    monopole corrections only (constant potential shift)
   LDIPOL =      F    correct potential (dipole corrections)
   IDIPOL =      0    1-x, 2-y, 3-z, 4-all directions 
   EPSILON=  1.0000000 bulk dielectric constant

 Exchange correlation treatment:
   GGA     =    --    GGA type
   LEXCH   =     8    internal setting for exchange type
   LIBXC   =     F    Libxc                    
   VOSKOWN =     0    Vosko Wilk Nusair interpolation
   LHFCALC =     F    Hartree Fock is set to
   LHFONE  =     F    Hartree Fock one center treatment
   AEXX    =    0.0000 exact exchange contribution

 Linear response parameters
   LEPSILON=     F    determine dielectric tensor
   LRPA    =     F    only Hartree local field effects (RPA)
   LNABLA  =     F    use nabla operator in PAW spheres
   LVEL    =     F    velocity operator in full k-point grid
   CSHIFT  =0.1000    complex shift for real part using Kramers Kronig
   OMEGAMAX=  -1.0    maximum frequency
   DEG_THRESHOLD= 0.2000000E-02 threshold for treating states as degnerate
   RTIME   =   -0.100 relaxation time in fs
  (WPLASMAI=    0.000 imaginary part of plasma frequency in eV, 0.658/RTIME)
   DFIELD  = 0.0000000 0.0000000 0.0000000 field for delta impulse in time
 
  Optional k-point grid parameters
   LKPOINTS_OPT  =     F    use optional k-point grid
   KPOINTS_OPT_MODE=     1    mode for optional k-point grid
 
 Orbital magnetization related:
   ORBITALMAG=     F  switch on orbital magnetization
   LCHIMAG   =     F  perturbation theory with respect to B field
   DQ        =  0.001000  dq finite difference perturbation B field
   LLRAUG    =     F  two centre corrections for induced B field



--------------------------------------------------------------------------------------------------------


 Static calculation
 charge density and potential will be updated during run
 spin polarized calculation
 Variant of blocked Davidson
 Davidson routine will perform the subspace rotation
 perform sub-space diagonalisation
    after iterative eigenvector-optimisation
 modified Broyden-mixing scheme, WC =      100.0
 initial mixing is a Kerker type mixing with AMIX =  0.4000 and BMIX =      1.0000
 Hartree-type preconditioning will be used
 using additional bands            36
 real space projection scheme for non local part
 use partial core corrections
 calculate Harris-corrections to forces 
   (improved forces if not selfconsistent)
 use gradient corrections 
 use of overlap-Matrix (Vanderbilt PP)
 Fermi weights with tetrahedron method with Bloechl corrections


--------------------------------------------------------------------------------------------------------


  energy-cutoff  :      520.00
  volume of cell :      228.63
      direct lattice vectors                 reciprocal lattice vectors
     2.727280000 -4.723787000  0.000000000     0.183332844 -0.105847279  0.000000000
     2.727280000  4.723787000  0.000000000     0.183332844  0.105847279 -0.000000000
     0.000000000  0.000000000  8.873143000    -0.000000000  0.000000000  0.112699638

  length of vectors
     5.454559544  5.454559544  8.873143000     0.211694540  0.211694540  0.112699638


 
 k-points in units of 2pi/SCALE and weight: Kpoints from vasprun.xml                
   0.00000000 -0.00000000  0.00000000       0.013
   0.03666657 -0.02116946  0.00000000       0.080
   0.07333314 -0.04233891  0.00000000       0.080
   0.07333314  0.00000000  0.00000000       0.080
   0.10999971 -0.02116946  0.00000000       0.080
   0.00000000 -0.00000000  0.03756655       0.027
   0.03666657 -0.02116946  0.03756655       0.160
   0.07333314 -0.04233891  0.03756655       0.160
   0.07333314  0.00000000  0.03756655       0.160
   0.10999971 -0.02116946  0.03756655       0.160
 
 k-points in reciprocal lattice and weights: Kpoints from vasprun.xml                
   0.00000000  0.00000000  0.00000000       0.013
   0.20000000  0.00000000  0.00000000       0.080
   0.40000000  0.00000000  0.00000000       0.080
   0.20000000  0.20000000  0.00000000       0.080
   0.40000000  0.20000000  0.00000000       0.080
   0.00000000  0.00000000  0.33333333       0.027
   0.20000000  0.00000000  0.33333333       0.160
   0.40000000  0.00000000  0.33333333       0.160
   0.20000000  0.20000000  0.33333333       0.160
   0.40000000  0.20000000  0.33333333       0.160
 
 position of ions in fractional coordinates (direct lattice) 
   0.33333300  0.66666700  0.43729400
   0.66666700  0.33333300  0.56270600
   0.66666700  0.33333300  0.93729400
   0.33333300  0.66666700  0.06270600
   0.00000000  0.00000000  0.50000000
   0.00000000  0.00000000  0.00000000
   0.82914000  0.17086000  0.25000000
   0.82914000  0.65828000  0.25000000
   0.34172000  0.17086000  0.25000000
   0.17086000  0.82914000  0.75000000
   0.17086000  0.34172000  0.75000000
   0.65828000  0.82914000  0.75000000
 
 position of ions in cartesian coordinates  (Angst):
   2.72728000  1.57459882  3.88017220
   2.72728000 -1.57459882  4.99297080
   2.72728000 -1.57459882  8.31674370
   2.72728000  1.57459882  0.55639930
   0.00000000  0.00000000  4.43657150
   0.00000000  0.00000000  0.00000000
   2.72728000 -3.10957451  2.21828575
   4.05661082 -0.80710625  2.21828575
   1.39794918 -0.80710625  2.21828575
   2.72728000  3.10957451  6.65485725
   1.39794918  0.80710625  6.65485725
   4.05661082  0.80710625  6.65485725
 


--------------------------------------------------------------------------------------------------------


 k-point   1 :   0.0000 0.0000 0.0000  plane waves:    6159
 k-point   2 :   0.2000 0.0000 0.0000  plane waves:    6155
 k-point   3 :   0.4000 0.0000 0.0000  plane waves:    6162
 k-point   4 :   0.2000 0.2000 0.0000  plane waves:    6168
 k-point   5 :   0.4000 0.2000 0.0000  plane waves:    6158
 k-point   6 :   0.0000 0.0000 0.3333  plane waves:    6159
 k-point   7 :   0.2000 0.0000 0.3333  plane waves:    6148
 k-point   8 :   0.4000 0.0000 0.3333  plane waves:    6153
 k-point   9 :   0.2000 0.2000 0.3333  plane waves:    6138
 k-point  10 :   0.4000 0.2000 0.3333  plane waves:    6171

 maximum and minimum number of plane-waves per node :      6171     6138

 maximum number of plane-waves:      6171
 maximum index in each direction: 
   IXMAX=   10   IYMAX=   10   IZMAX=   16
   IXMIN=  -10   IYMIN=  -10   IZMIN=  -16


 serial   3D FFT for wavefunctions
 parallel 3D FFT for charge:
    minimum data exchange during FFTs selected (reduces bandwidth)


 total amount of memory used by VASP MPI-rank0   184517. kBytes
=======================================================================

   base      :      30000. kBytes
   nonlr-proj:      22746. kBytes
   fftplans  :      36751. kBytes
   grid      :      29917. kBytes
   one-center:       1179. kBytes
   wavefun   :      63924. kBytes
 
     INWAV:  cpu time      0.0001: real time      0.0003
 Broyden mixing: mesh for mixing (old mesh)
   NGX = 21   NGY = 21   NGZ = 33
  (NGX  = 84   NGY  = 84   NGZ  =140)
  gives a total of  14553 points

 charge density for first step will be calculated from the start-wavefunctions


--------------------------------------------------------------------------------------------------------


 Maximum index for non-local projection operator          9494
 Maximum index for augmentation-charges         62070 (set IRDMAX)


--------------------------------------------------------------------------------------------------------


 initial charge from wavefunction
 First call to EWALD:  gamma=   0.290
 Maximum number of real-space cells 3x 3x 2
 Maximum number of reciprocal cells 3x 3x 4

    FEWALD:  cpu time      0.0006: real time      0.0006


--------------------------------------- Iteration      1(   1)  ---------------------------------------


    POTLOK:  cpu time      0.1067: real time      0.1612
    SETDIJ:  cpu time      2.0368: real time      2.0385
     EDDAV:  cpu time      3.1534: real time      3.1577
 BZINTS: Fermi energy:   34.263854;  176.000000 electrons
         Band energy:-0.227765E+04;  BLOECHL correction:   -0.220847
       DOS:  cpu time      0.0718: real time      0.0718
    --------------------------------------------
      LOOP:  cpu time      5.3686: real time      5.4293

 eigenvalue-minimisations  :  6712
 total energy-change (2. order) : 0.2456755E+04  (-0.6115228E+04)
 number of electron     176.0000002 magnetization      -0.0000000
 augmentation part       40.8488263 magnetization      -0.0110497

 Free energy of the ion-electron system (eV)
  ---------------------------------------------------
  alpha Z        PSCENC =      2355.24349734
  Ewald energy   TEWEN  =    -20369.87665257
  -Hartree energ DENC   =     -1048.51426720
  -exchange      EXHF   =         0.00000000
  -V(xc)+E(xc)   XCENC  =       564.22931181
  PAW double counting   = 113730452.30867811******************
  entropy T*S    EENTRO =         0.00000000
  eigenvalues    EBANDS =     -2277.65485331
  atomic energy  EATOM  =     24233.14077129
  Solvation  Ediel_sol  =         0.00000000
  ---------------------------------------------------
  free energy    TOTEN  =      2456.75456459 eV

  energy without entropy =     2456.75456459  energy(sigma->0) =     2456.75456459


--------------------------------------------------------------------------------------------------------




--------------------------------------- Iteration      1(   2)  ---------------------------------------


     EDDAV:  cpu time      2.7676: real time      2.7703
 BZINTS: Fermi energy:    8.153469;  176.000000 electrons
         Band energy:-0.585360E+04;  BLOECHL correction:   -0.545406
       DOS:  cpu time      0.0721: real time      0.0721
    --------------------------------------------
      LOOP:  cpu time      2.8397: real time      2.8425

 eigenvalue-minimisations  :  5800
 total energy-change (2. order) :-0.3575941E+04  (-0.3259574E+04)
 number of electron     176.0000002 magnetization      -0.0000000
 augmentation part       40.8488263 magnetization      -0.0110497

 Free energy of the ion-electron system (eV)
  ---------------------------------------------------
  alpha Z        PSCENC =      2355.24349734
  Ewald energy   TEWEN  =    -20369.87665257
  -Hartree energ DENC   =     -1048.51426720
  -exchange      EXHF   =         0.00000000
  -V(xc)+E(xc)   XCENC  =       564.22931181
  PAW double counting   = 113730452.30867811******************
  entropy T*S    EENTRO =         0.00000000
  eigenvalues    EBANDS =     -5853.59631248
  atomic energy  EATOM  =     24233.14077129
  Solvation  Ediel_sol  =         0.00000000
  ---------------------------------------------------
  free energy    TOTEN  =     -1119.18689458 eV

  energy without entropy =    -1119.18689458  energy(sigma->0) =    -1119.18689458


--------------------------------------------------------------------------------------------------------




--------------------------------------- Iteration      1(   3)  ---------------------------------------


     EDDAV:  cpu time      3.2190: real time      3.2211
 BZINTS: Fermi energy:  -12.053715;  176.000000 electrons
         Band energy:-0.708633E+04;  BLOECHL correction:   -0.056697
       DOS:  cpu time      0.0678: real time      0.0678
    --------------------------------------------
      LOOP:  cpu time      3.2868: real time      3.2889

 eigenvalue-minimisations  :  7128
 total energy-change (2. order) :-0.1232735E+04  (-0.1083807E+04)
 number of electron     176.0000002 magnetization      -0.0000000
 augmentation part       40.8488263 magnetization      -0.0110497

 Free energy of the ion-electron system (eV)
  ---------------------------------------------------
  alpha Z        PSCENC =      2355.24349734
  Ewald energy   TEWEN  =    -20369.87665257
  -Hartree energ DENC   =     -1048.51426720
  -exchange      EXHF   =         0.00000000
  -V(xc)+E(xc)   XCENC  =       564.22931181
  PAW double counting   = 113730452.30867811******************
  entropy T*S    EENTRO =         0.00000000
  eigenvalues    EBANDS =     -7086.33163232
  atomic energy  EATOM  =     24233.14077129
  Solvation  Ediel_sol  =         0.00000000
  ---------------------------------------------------
  free energy    TOTEN  =     -2351.92221442 eV

  energy without entropy =    -2351.92221442  energy(sigma->0) =    -2351.92221442


--------------------------------------------------------------------------------------------------------




--------------------------------------- Iteration      1(   4)  ---------------------------------------


     EDDAV:  cpu time      4.2378: real time      4.2402
 BZINTS: Fermi energy:  -14.560281;  176.000000 electrons
         Band energy:-0.729338E+04;  BLOECHL correction:    0.000000
       DOS:  cpu time      0.0338: real time      0.0339
    --------------------------------------------
      LOOP:  cpu time      4.2716: real time      4.2741

 eigenvalue-minimisations  :  9672
 total energy-change (2. order) :-0.2070439E+03  (-0.1881830E+03)
 number of electron     176.0000002 magnetization      -0.0000000
 augmentation part       40.8488263 magnetization      -0.0110497

 Free energy of the ion-electron system (eV)
  ---------------------------------------------------
  alpha Z        PSCENC =      2355.24349734
  Ewald energy   TEWEN  =    -20369.87665257
  -Hartree energ DENC   =     -1048.51426720
  -exchange      EXHF   =         0.00000000
  -V(xc)+E(xc)   XCENC  =       564.22931181
  PAW double counting   = 113730452.30867811******************
  entropy T*S    EENTRO =         0.00000000
  eigenvalues    EBANDS =     -7293.37551373
  atomic energy  EATOM  =     24233.14077129
  Solvation  Ediel_sol  =         0.00000000
  ---------------------------------------------------
  free energy    TOTEN  =     -2558.96609584 eV

  energy without entropy =    -2558.96609584  energy(sigma->0) =    -2558.96609584


--------------------------------------------------------------------------------------------------------




--------------------------------------- Iteration      1(   5)  ---------------------------------------


     EDDAV:  cpu time      4.1597: real time      4.1625
 BZINTS: Fermi energy:  -14.777259;  176.000000 electrons
         Band energy:-0.731974E+04;  BLOECHL correction:    0.000000
       DOS:  cpu time      0.0360: real time      0.0360
    CHARGE:  cpu time      0.2385: real time      0.2385
    MIXING:  cpu time      0.0025: real time      0.0025
    --------------------------------------------
      LOOP:  cpu time      4.4366: real time      4.4395

 eigenvalue-minimisations  :  9416
 total energy-change (2. order) :-0.2636724E+02  (-0.2581824E+02)
 number of electron     176.0000006 magnetization      -0.0000000
 augmentation part      105.6258337 magnetization       0.0043864

 Broyden mixing:
  rms(total) = 0.18949E+04    rms(broyden)= 0.18949E+04
  rms(prec ) = 0.18951E+04
  weight for this iteration     100.00

 Free energy of the ion-electron system (eV)
  ---------------------------------------------------
  alpha Z        PSCENC =      2355.24349734
  Ewald energy   TEWEN  =    -20369.87665257
  -Hartree energ DENC   =     -1048.51426720
  -exchange      EXHF   =         0.00000000
  -V(xc)+E(xc)   XCENC  =       564.22931181
  PAW double counting   = 113730452.30867811******************
  entropy T*S    EENTRO =         0.00000000
  eigenvalues    EBANDS =     -7319.74275557
  atomic energy  EATOM  =     24233.14077129
  Solvation  Ediel_sol  =         0.00000000
  ---------------------------------------------------
  free energy    TOTEN  =     -2585.33333767 eV

  energy without entropy =    -2585.33333767  energy(sigma->0) =    -2585.33333767


--------------------------------------------------------------------------------------------------------




--------------------------------------- Iteration      1(   6)  ---------------------------------------


    POTLOK:  cpu time      0.0087: real time      0.0092
    SETDIJ:  cpu time      2.0113: real time      2.0119
     EDDAV:  cpu time      3.9322: real time      3.9335
 BZINTS: Fermi energy:    4.829028;  176.000000 electrons
         Band energy:-0.355228E+04;  BLOECHL correction:    0.000000
       DOS:  cpu time      0.0368: real time      0.0368
    CHARGE:  cpu time      0.2366: real time      0.2367
    MIXING:  cpu time      0.0028: real time      0.0054
    --------------------------------------------
      LOOP:  cpu time      6.2283: real time      6.2334

 eigenvalue-minimisations  :  8824
 total energy-change (2. order) : 0.7031292E+03  (-0.1393456E+04)
 number of electron     176.0000003 magnetization       0.0000000
 augmentation part       55.7618111 magnetization      -0.2828507

 Broyden mixing:
  rms(total) = 0.11587E+04    rms(broyden)= 0.11587E+04
  rms(prec ) = 0.11589E+04
  weight for this iteration     100.00

 eigenvalues of (default mixing * dielectric matrix)
  average eigenvalue GAMMA=   2.5383
  2.5383

 Free energy of the ion-electron system (eV)
  ---------------------------------------------------
  alpha Z        PSCENC =      2355.24349734
  Ewald energy   TEWEN  =    -20369.87665257
  -Hartree energ DENC   =     -3281.98434728
  -exchange      EXHF   =         0.00000000
  -V(xc)+E(xc)   XCENC  =       653.36999149
  PAW double counting   =  42925058.04384359-42926977.86619408
  entropy T*S    EENTRO =         0.00000000
  eigenvalues    EBANDS =     -3552.27505719
  atomic energy  EATOM  =     24233.14077129
  Solvation  Ediel_sol  =         0.00000000
  ---------------------------------------------------
  free energy    TOTEN  =     -1882.20414741 eV

  energy without entropy =    -1882.20414741  energy(sigma->0) =    -1882.20414741


--------------------------------------------------------------------------------------------------------




--------------------------------------- Iteration      1(   7)  ---------------------------------------


    POTLOK:  cpu time      0.0087: real time      0.0091
    SETDIJ:  cpu time      2.0141: real time      2.0148
     EDDAV:  cpu time      4.2939: real time      4.2976
 BZINTS: Fermi energy:   12.157006;  176.000000 electrons
         Band energy:-0.123637E+05;  BLOECHL correction:   -0.141593
       DOS:  cpu time      0.0682: real time      0.0682
    CHARGE:  cpu time      0.2375: real time      0.2377
    MIXING:  cpu time      0.0026: real time      0.0026
    --------------------------------------------
      LOOP:  cpu time      6.6251: real time      6.6300

 eigenvalue-minimisations  :  9780
 total energy-change (2. order) :-0.7822560E+04  (-0.1152166E+05)
 number of electron     176.0000004 magnetization      -0.2584223
 augmentation part       67.7781207 magnetization      -0.1624513

 Broyden mixing:
  rms(total) = 0.13694E+03    rms(broyden)= 0.13694E+03
  rms(prec ) = 0.14391E+03
  weight for this iteration     100.00

 eigenvalues of (default mixing * dielectric matrix)
  average eigenvalue GAMMA=   1.5953
  0.8552  2.3353

 Free energy of the ion-electron system (eV)
  ---------------------------------------------------
  alpha Z        PSCENC =      2355.24349734
  Ewald energy   TEWEN  =    -20369.87665257
  -Hartree energ DENC   =     -4439.27697592
  -exchange      EXHF   =         0.00000000
  -V(xc)+E(xc)   XCENC  =       686.66688641
  PAW double counting   =    105257.35042792  -105064.28102699
  entropy T*S    EENTRO =         0.00000000
  eigenvalues    EBANDS =    -12363.73115879
  atomic energy  EATOM  =     24233.14077129
  Solvation  Ediel_sol  =         0.00000000
  ---------------------------------------------------
  free energy    TOTEN  =     -9704.76423132 eV

  energy without entropy =    -9704.76423132  energy(sigma->0) =    -9704.76423132


--------------------------------------------------------------------------------------------------------




--------------------------------------- Iteration      1(   8)  ---------------------------------------


    POTLOK:  cpu time      0.0086: real time      0.0094
    SETDIJ:  cpu time      2.0265: real time      2.0276
     EDDAV:  cpu time      4.0227: real time      4.0248
 BZINTS: Fermi energy:    6.724050;  176.000000 electrons
         Band energy:-0.381955E+04;  BLOECHL correction:   -0.097094
       DOS:  cpu time      0.0662: real time      0.0662
    CHARGE:  cpu time      0.2391: real time      0.2392
    MIXING:  cpu time      0.0024: real time      0.0024
    --------------------------------------------
      LOOP:  cpu time      6.3656: real time      6.3697

 eigenvalue-minimisations  :  9104
 total energy-change (2. order) : 0.8505561E+04  (-0.6960522E+03)
 number of electron     176.0000005 magnetization       0.1294296
 augmentation part       89.2435908 magnetization      -0.5247781

 Broyden mixing:
  rms(total) = 0.10967E+03    rms(broyden)= 0.10967E+03
  rms(prec ) = 0.11231E+03
  weight for this iteration     100.00

 eigenvalues of (default mixing * dielectric matrix)
  average eigenvalue GAMMA=   1.3316
  2.5459  0.7244  0.7244

 Free energy of the ion-electron system (eV)
  ---------------------------------------------------
  alpha Z        PSCENC =      2355.24349734
  Ewald energy   TEWEN  =    -20369.87665257
  -Hartree energ DENC   =     -3746.38580984
  -exchange      EXHF   =         0.00000000
  -V(xc)+E(xc)   XCENC  =       681.30112354
  PAW double counting   =    697087.64876497  -697620.72967196
  entropy T*S    EENTRO =         0.00000000
  eigenvalues    EBANDS =     -3819.54520088
  atomic energy  EATOM  =     24233.14077129
  Solvation  Ediel_sol  =         0.00000000
  ---------------------------------------------------
  free energy    TOTEN  =     -1199.20317812 eV

  energy without entropy =    -1199.20317812  energy(sigma->0) =    -1199.20317812


--------------------------------------------------------------------------------------------------------




--------------------------------------- Iteration      1(   9)  ---------------------------------------


    POTLOK:  cpu time      0.0090: real time      0.0096
    SETDIJ:  cpu time      2.0200: real time      2.0210
     EDDAV:  cpu time      4.2659: real time      4.2681
 BZINTS: Fermi energy:   15.096977;  176.000000 electrons
         Band energy:-0.143762E+04;  BLOECHL correction:   -0.072052
       DOS:  cpu time      0.0670: real time      0.0670
    CHARGE:  cpu time      0.2459: real time      0.2461
    MIXING:  cpu time      0.0027: real time      0.0027
    --------------------------------------------
      LOOP:  cpu time      6.6104: real time      6.6145

 eigenvalue-minimisations  :  9696
 total energy-change (2. order) : 0.4021385E+03  (-0.1462276E+04)
 number of electron     176.0000002 magnetization       0.0218791
 augmentation part       41.5183888 magnetization       0.0061196

 Broyden mixing:
  rms(total) = 0.94780E+02    rms(broyden)= 0.94780E+02
  rms(prec ) = 0.96167E+02
  weight for this iteration     100.00

 eigenvalues of (default mixing * dielectric matrix)
  average eigenvalue GAMMA=   1.1263
  2.4804  0.6940  0.6940  0.6369

 Free energy of the ion-electron system (eV)
  ---------------------------------------------------
  alpha Z        PSCENC =      2355.24349734
  Ewald energy   TEWEN  =    -20369.87665257
  -Hartree energ DENC   =     -5068.54713624
  -exchange      EXHF   =         0.00000000
  -V(xc)+E(xc)   XCENC  =       731.44954337
  PAW double counting   =     55431.35355008   -56672.20502804
  entropy T*S    EENTRO =         0.00000000
  eigenvalues    EBANDS =     -1437.62318082
  atomic energy  EATOM  =     24233.14077129
  Solvation  Ediel_sol  =         0.00000000
  ---------------------------------------------------
  free energy    TOTEN  =      -797.06463559 eV

  energy without entropy =     -797.06463559  energy(sigma->0) =     -797.06463559


--------------------------------------------------------------------------------------------------------




--------------------------------------- Iteration      1(  10)  ---------------------------------------


    POTLOK:  cpu time      0.0084: real time      0.0096
    SETDIJ:  cpu time      2.0175: real time      2.0181
     EDDAV:  cpu time      4.2370: real time      4.2396
 BZINTS: Fermi energy:    6.429494;  176.000000 electrons
         Band energy:-0.221476E+04;  BLOECHL correction:   -0.076214
       DOS:  cpu time      0.0668: real time      0.0668
    CHARGE:  cpu time      0.2378: real time      0.2379
    MIXING:  cpu time      0.0027: real time      0.0027
    --------------------------------------------
      LOOP:  cpu time      6.5702: real time      6.5748

 eigenvalue-minimisations  :  9656
 total energy-change (2. order) : 0.6077638E+03  (-0.4432953E+03)
 number of electron     176.0000005 magnetization      -0.0464665
 augmentation part       86.0465545 magnetization       0.0915822

 Broyden mixing:
  rms(total) = 0.46762E+02    rms(broyden)= 0.46762E+02
  rms(prec ) = 0.48702E+02
  weight for this iteration     100.00

 eigenvalues of (default mixing * dielectric matrix)
  average eigenvalue GAMMA=   1.0290
  2.5216  0.8458  0.8458  0.6355  0.2962

 Free energy of the ion-electron system (eV)
  ---------------------------------------------------
  alpha Z        PSCENC =      2355.24349734
  Ewald energy   TEWEN  =    -20369.87665257
  -Hartree energ DENC   =     -4122.57117725
  -exchange      EXHF   =         0.00000000
  -V(xc)+E(xc)   XCENC  =       695.90499846
  PAW double counting   =    264668.77822520  -265435.15911716
  entropy T*S    EENTRO =         0.00000000
  eigenvalues    EBANDS =     -2214.76141352
  atomic energy  EATOM  =     24233.14077129
  Solvation  Ediel_sol  =         0.00000000
  ---------------------------------------------------
  free energy    TOTEN  =      -189.30086822 eV

  energy without entropy =     -189.30086822  energy(sigma->0) =     -189.30086822


--------------------------------------------------------------------------------------------------------




--------------------------------------- Iteration      1(  11)  ---------------------------------------


    POTLOK:  cpu time      0.0087: real time      0.0094
    SETDIJ:  cpu time      2.0254: real time      2.0261
     EDDAV:  cpu time      4.0061: real time      4.0083
 BZINTS: Fermi energy:   12.562442;  176.000000 electrons
         Band energy:-0.166179E+04;  BLOECHL correction:   -0.055736
       DOS:  cpu time      0.0652: real time      0.0652
    CHARGE:  cpu time      0.2381: real time      0.2383
    MIXING:  cpu time      0.0028: real time      0.0028
    --------------------------------------------
      LOOP:  cpu time      6.3461: real time      6.3501

 eigenvalue-minimisations  :  9056
 total energy-change (2. order) : 0.2280153E+01  (-0.2331780E+03)
 number of electron     176.0000002 magnetization       0.0022519
 augmentation part       41.2741872 magnetization       0.3207032

 Broyden mixing:
  rms(total) = 0.42240E+02    rms(broyden)= 0.42240E+02
  rms(prec ) = 0.43812E+02
  weight for this iteration     100.00

 eigenvalues of (default mixing * dielectric matrix)
  average eigenvalue GAMMA=   0.8597
  2.5234  0.8427  0.8427  0.6357  0.2955  0.0180

 Free energy of the ion-electron system (eV)
  ---------------------------------------------------
  alpha Z        PSCENC =      2355.24349734
  Ewald energy   TEWEN  =    -20369.87665257
  -Hartree energ DENC   =     -4384.82983840
  -exchange      EXHF   =         0.00000000
  -V(xc)+E(xc)   XCENC  =       705.41930969
  PAW double counting   =    172151.52209125  -173215.85318023
  entropy T*S    EENTRO =         0.00000000
  eigenvalues    EBANDS =     -1661.78671393
  atomic energy  EATOM  =     24233.14077129
  Solvation  Ediel_sol  =         0.00000000
  ---------------------------------------------------
  free energy    TOTEN  =      -187.02071556 eV

  energy without entropy =     -187.02071556  energy(sigma->0) =     -187.02071556


--------------------------------------------------------------------------------------------------------




--------------------------------------- Iteration      1(  12)  ---------------------------------------


    POTLOK:  cpu time      0.0084: real time      0.0093
    SETDIJ:  cpu time      2.0299: real time      2.0308
     EDDAV:  cpu time      4.3649: real time      4.3686
 BZINTS: Fermi energy:   10.307007;  176.000000 electrons
         Band energy:-0.176567E+04;  BLOECHL correction:   -0.062504
       DOS:  cpu time      0.0627: real time      0.0627
    CHARGE:  cpu time      0.2399: real time      0.2401
    MIXING:  cpu time      0.0029: real time      0.0030
    --------------------------------------------
      LOOP:  cpu time      6.7087: real time      6.7145

 eigenvalue-minimisations  :  9920
 total energy-change (2. order) :-0.2719817E+03  (-0.1166779E+03)
 number of electron     176.0000002 magnetization      -0.3353106
 augmentation part       41.1026136 magnetization      -0.2515465

 Broyden mixing:
  rms(total) = 0.55323E+02    rms(broyden)= 0.55323E+02
  rms(prec ) = 0.57256E+02
  weight for this iteration     100.00

 eigenvalues of (default mixing * dielectric matrix)
  average eigenvalue GAMMA=   0.8651
  2.5272  0.9031  0.9031  0.6331  0.3958  0.3958  0.2973

 Free energy of the ion-electron system (eV)
  ---------------------------------------------------
  alpha Z        PSCENC =      2355.24349734
  Ewald energy   TEWEN  =    -20369.87665257
  -Hartree energ DENC   =     -4488.61629180
  -exchange      EXHF   =         0.00000000
  -V(xc)+E(xc)   XCENC  =       709.35161537
  PAW double counting   =    205271.65087910  -206404.22606341
  entropy T*S    EENTRO =         0.00000000
  eigenvalues    EBANDS =     -1765.67019960
  atomic energy  EATOM  =     24233.14077129
  Solvation  Ediel_sol  =         0.00000000
  ---------------------------------------------------
  free energy    TOTEN  =      -459.00244428 eV

  energy without entropy =     -459.00244428  energy(sigma->0) =     -459.00244428


--------------------------------------------------------------------------------------------------------




--------------------------------------- Iteration      1(  13)  ---------------------------------------


    POTLOK:  cpu time      0.0084: real time      0.0094
    SETDIJ:  cpu time      2.0382: real time      2.0393
     EDDAV:  cpu time      4.2676: real time      4.2701
 BZINTS: Fermi energy:    8.031586;  176.000000 electrons
         Band energy:-0.199436E+04;  BLOECHL correction:   -0.065306
       DOS:  cpu time      0.0638: real time      0.0638
    CHARGE:  cpu time      0.2392: real time      0.2393
    MIXING:  cpu time      0.0030: real time      0.0030
    --------------------------------------------
      LOOP:  cpu time      6.6202: real time      6.6250

 eigenvalue-minimisations  :  9696
 total energy-change (2. order) :-0.2626443E+03  (-0.5371417E+02)
 number of electron     176.0000002 magnetization      -0.5739130
 augmentation part       45.0209569 magnetization      -0.5334596

 Broyden mixing:
  rms(total) = 0.50917E+02    rms(broyden)= 0.50917E+02
  rms(prec ) = 0.53919E+02
  weight for this iteration     100.00

 eigenvalues of (default mixing * dielectric matrix)
  average eigenvalue GAMMA=   0.9038
  2.5260  1.0061  1.0061  0.6194  0.6194  0.6774  0.4478  0.3285

 Free energy of the ion-electron system (eV)
  ---------------------------------------------------
  alpha Z        PSCENC =      2355.24349734
  Ewald energy   TEWEN  =    -20369.87665257
  -Hartree energ DENC   =     -4482.73452566
  -exchange      EXHF   =         0.00000000
  -V(xc)+E(xc)   XCENC  =       707.37704595
  PAW double counting   =    175858.25459413  -177028.69036241
  entropy T*S    EENTRO =         0.00000000
  eigenvalues    EBANDS =     -1994.36107064
  atomic energy  EATOM  =     24233.14077129
  Solvation  Ediel_sol  =         0.00000000
  ---------------------------------------------------
  free energy    TOTEN  =      -721.64670258 eV

  energy without entropy =     -721.64670258  energy(sigma->0) =     -721.64670258


--------------------------------------------------------------------------------------------------------




--------------------------------------- Iteration      1(  14)  ---------------------------------------


    POTLOK:  cpu time      0.0088: real time      0.0093
    SETDIJ:  cpu time      2.0242: real time      2.0250
     EDDAV:  cpu time      3.9648: real time      3.9678
 WARNING: Fermi level nearly degenerate with energies of tetrahedron. This may
     result in numerical instabilities because the density changes by tiny
     changes of the Fermi energy. If the calculation converges, the total
     energy will still be reliable. If you notice convergence issues, you can
     try to
     *) Use a Gamma centered k-point grid
     *) Use tetrahedron method without corrections ISMEAR = -4
     *) Don't use tetrahedron method
        ISMEAR = 0 for semiconductors, 1 or 2 for metals

 BZINTS: Fermi energy:    8.255167;  175.999993 electrons
         Band energy:-0.192149E+04;  BLOECHL correction:   -0.016918
       DOS:  cpu time      0.0531: real time      0.0531
    CHARGE:  cpu time      0.2392: real time      0.2393
    MIXING:  cpu time      0.0031: real time      0.0031
    --------------------------------------------
      LOOP:  cpu time      6.2931: real time      6.2977

 eigenvalue-minimisations  :  9000
 total energy-change (2. order) : 0.5484533E+03  (-0.1915061E+02)
 number of electron     176.0000002 magnetization      -0.8032988
 augmentation part       46.2218769 magnetization      -0.7415241

 Broyden mixing:
  rms(total) = 0.47965E+02    rms(broyden)= 0.47965E+02
  rms(prec ) = 0.49971E+02
  weight for this iteration     100.00

 eigenvalues of (default mixing * dielectric matrix)
  average eigenvalue GAMMA=   0.8439
  2.5341  1.1326  1.1326  0.6797  0.6187  0.6187  0.3835  0.3283  0.1666

 Free energy of the ion-electron system (eV)
  ---------------------------------------------------
  alpha Z        PSCENC =      2355.24349734
  Ewald energy   TEWEN  =    -20369.87665257
  -Hartree energ DENC   =     -4260.81396233
  -exchange      EXHF   =         0.00000000
  -V(xc)+E(xc)   XCENC  =       700.23349818
  PAW double counting   =    149605.83141518  -150515.46314183
  entropy T*S    EENTRO =         0.00000000
  eigenvalues    EBANDS =     -1921.48879561
  atomic energy  EATOM  =     24233.14077129
  Solvation  Ediel_sol  =         0.00000000
  ---------------------------------------------------
  free energy    TOTEN  =      -173.19337037 eV

  energy without entropy =     -173.19337037  energy(sigma->0) =     -173.19337037


--------------------------------------------------------------------------------------------------------




--------------------------------------- Iteration      1(  15)  ---------------------------------------


    POTLOK:  cpu time      0.0088: real time      0.0094
    SETDIJ:  cpu time      2.0417: real time      2.0426
     EDDAV:  cpu time      3.8828: real time      3.8848
 BZINTS: Fermi energy:    3.236245;  176.000000 electrons
         Band energy:-0.220914E+04;  BLOECHL correction:   -0.084129
       DOS:  cpu time      0.0679: real time      0.0679
    CHARGE:  cpu time      0.2389: real time      0.2391
    MIXING:  cpu time      0.0029: real time      0.0029
    --------------------------------------------
      LOOP:  cpu time      6.2429: real time      6.2468

 eigenvalue-minimisations  :  8752
 total energy-change (2. order) :-0.3522313E+02  (-0.1067058E+02)
 number of electron     176.0000005 magnetization      -0.8085838
 augmentation part       86.5127735 magnetization      -0.6733435

 Broyden mixing:
  rms(total) = 0.42741E+02    rms(broyden)= 0.42741E+02
  rms(prec ) = 0.44613E+02
  weight for this iteration     100.00

 eigenvalues of (default mixing * dielectric matrix)
  average eigenvalue GAMMA=   0.7843
  2.5199  1.1723  1.1723  0.6759  0.6243  0.6243  0.3379  0.3066  0.3066  0.1033

 Free energy of the ion-electron system (eV)
  ---------------------------------------------------
  alpha Z        PSCENC =      2355.24349734
  Ewald energy   TEWEN  =    -20369.87665257
  -Hartree energ DENC   =     -4125.65521814
  -exchange      EXHF   =         0.00000000
  -V(xc)+E(xc)   XCENC  =       695.09206519
  PAW double counting   =    128248.48828107  -129035.70735041
  entropy T*S    EENTRO =         0.00000000
  eigenvalues    EBANDS =     -2209.14188938
  atomic energy  EATOM  =     24233.14077129
  Solvation  Ediel_sol  =         0.00000000
  ---------------------------------------------------
  free energy    TOTEN  =      -208.41649560 eV

  energy without entropy =     -208.41649560  energy(sigma->0) =     -208.41649560


--------------------------------------------------------------------------------------------------------




--------------------------------------- Iteration      1(  16)  ---------------------------------------


    POTLOK:  cpu time      0.0086: real time      0.0091
    SETDIJ:  cpu time      2.0299: real time      2.0308
     EDDAV:  cpu time      3.8490: real time      3.8512
 BZINTS: Fermi energy:    3.217206;  176.000000 electrons
         Band energy:-0.225885E+04;  BLOECHL correction:   -0.090016
       DOS:  cpu time      0.0659: real time      0.0660
    CHARGE:  cpu time      0.2390: real time      0.2392
    MIXING:  cpu time      0.0032: real time      0.0032
    --------------------------------------------
      LOOP:  cpu time      6.1956: real time      6.1996

 eigenvalue-minimisations  :  8680
 total energy-change (2. order) :-0.3492484E+02  (-0.1811599E+02)
 number of electron     176.0000005 magnetization      -0.9383898
 augmentation part       84.6142105 magnetization      -0.8422884

 Broyden mixing:
  rms(total) = 0.43469E+02    rms(broyden)= 0.43469E+02
  rms(prec ) = 0.45345E+02
  weight for this iteration     100.00

 eigenvalues of (default mixing * dielectric matrix)
  average eigenvalue GAMMA=   0.7657
  2.6487  1.3270  1.3270  0.7017  0.5029  0.5029  0.4224  0.4224  0.2695  0.2695
  0.0288

 Free energy of the ion-electron system (eV)
  ---------------------------------------------------
  alpha Z        PSCENC =      2355.24349734
  Ewald energy   TEWEN  =    -20369.87665257
  -Hartree energ DENC   =     -4118.42042772
  -exchange      EXHF   =         0.00000000
  -V(xc)+E(xc)   XCENC  =       694.84617938
  PAW double counting   =    129398.95553334  -130178.38121243
  entropy T*S    EENTRO =         0.00000000
  eigenvalues    EBANDS =     -2258.84902878
  atomic energy  EATOM  =     24233.14077129
  Solvation  Ediel_sol  =         0.00000000
  ---------------------------------------------------
  free energy    TOTEN  =      -243.34134014 eV

  energy without entropy =     -243.34134014  energy(sigma->0) =     -243.34134014


--------------------------------------------------------------------------------------------------------




--------------------------------------- Iteration      1(  17)  ---------------------------------------


    POTLOK:  cpu time      0.0088: real time      0.0094
    SETDIJ:  cpu time      2.0434: real time      2.0449
     EDDAV:  cpu time      3.7020: real time      3.7042
 BZINTS: Fermi energy:    3.871299;  176.000000 electrons
         Band energy:-0.210147E+04;  BLOECHL correction:   -0.009394
       DOS:  cpu time      0.0732: real time      0.0732
    CHARGE:  cpu time      0.2370: real time      0.2371
    MIXING:  cpu time      0.0035: real time      0.0035
    --------------------------------------------
      LOOP:  cpu time      6.0678: real time      6.0723

 eigenvalue-minimisations  :  8288
 total energy-change (2. order) : 0.9619904E+02  (-0.2428565E+01)
 number of electron     176.0000004 magnetization      -1.7630016
 augmentation part       72.8106902 magnetization      -1.3828973

 Broyden mixing:
  rms(total) = 0.25752E+02    rms(broyden)= 0.25752E+02
  rms(prec ) = 0.26337E+02
  weight for this iteration     100.00

 eigenvalues of (default mixing * dielectric matrix)
  average eigenvalue GAMMA=   0.7252
  2.6590  1.3478  1.3478  0.7051  0.4946  0.4946  0.4046  0.4046  0.3270  0.3270
  0.1641  0.0261

 Free energy of the ion-electron system (eV)
  ---------------------------------------------------
  alpha Z        PSCENC =      2355.24349734
  Ewald energy   TEWEN  =    -20369.87665257
  -Hartree energ DENC   =     -4122.34604310
  -exchange      EXHF   =         0.00000000
  -V(xc)+E(xc)   XCENC  =       694.45916293
  PAW double counting   =     72411.62782901   -73247.91658153
  entropy T*S    EENTRO =         0.00000000
  eigenvalues    EBANDS =     -2101.47428299
  atomic energy  EATOM  =     24233.14077129
  Solvation  Ediel_sol  =         0.00000000
  ---------------------------------------------------
  free energy    TOTEN  =      -147.14229962 eV

  energy without entropy =     -147.14229962  energy(sigma->0) =     -147.14229962


--------------------------------------------------------------------------------------------------------




--------------------------------------- Iteration      1(  18)  ---------------------------------------


    POTLOK:  cpu time      0.0084: real time      0.0098
    SETDIJ:  cpu time      2.0448: real time      2.0456
     EDDAV:  cpu time      3.9028: real time      3.9047
 BZINTS: Fermi energy:    5.627122;  176.000000 electrons
         Band energy:-0.206315E+04;  BLOECHL correction:   -0.035083
       DOS:  cpu time      0.0669: real time      0.0670
    CHARGE:  cpu time      0.2390: real time      0.2391
    MIXING:  cpu time      0.0034: real time      0.0034
    --------------------------------------------
      LOOP:  cpu time      6.2653: real time      6.2694

 eigenvalue-minimisations  :  8784
 total energy-change (2. order) :-0.2652074E+01  (-0.2301737E+01)
 number of electron     176.0000003 magnetization      -0.9478582
 augmentation part       56.0560563 magnetization      -0.3972128

 Broyden mixing:
  rms(total) = 0.23429E+02    rms(broyden)= 0.23429E+02
  rms(prec ) = 0.24227E+02
  weight for this iteration     100.00

 eigenvalues of (default mixing * dielectric matrix)
  average eigenvalue GAMMA=   0.7558
  2.6937  1.4485  1.4485  0.5223  0.5223  0.7143  0.6175  0.6175  0.4439  0.2930
  0.2930  0.1847  0.0263

 Free energy of the ion-electron system (eV)
  ---------------------------------------------------
  alpha Z        PSCENC =      2355.24349734
  Ewald energy   TEWEN  =    -20369.87665257
  -Hartree energ DENC   =     -4130.26148568
  -exchange      EXHF   =         0.00000000
  -V(xc)+E(xc)   XCENC  =       694.59803237
  PAW double counting   =     64843.49148133   -65712.97932879
  entropy T*S    EENTRO =         0.00000000
  eigenvalues    EBANDS =     -2063.15068877
  atomic energy  EATOM  =     24233.14077129
  Solvation  Ediel_sol  =         0.00000000
  ---------------------------------------------------
  free energy    TOTEN  =      -149.79437348 eV

  energy without entropy =     -149.79437348  energy(sigma->0) =     -149.79437348


--------------------------------------------------------------------------------------------------------




--------------------------------------- Iteration      1(  19)  ---------------------------------------


    POTLOK:  cpu time      0.0083: real time      0.0092
    SETDIJ:  cpu time      2.0360: real time      2.0377
     EDDAV:  cpu time      4.0106: real time      4.0122
 BZINTS: Fermi energy:    7.576291;  176.000000 electrons
         Band energy:-0.204983E+04;  BLOECHL correction:   -0.042990
       DOS:  cpu time      0.0639: real time      0.0639
    CHARGE:  cpu time      0.2374: real time      0.2375
    MIXING:  cpu time      0.0040: real time      0.0040
    --------------------------------------------
      LOOP:  cpu time      6.3601: real time      6.3645

 eigenvalue-minimisations  :  9080
 total energy-change (2. order) :-0.5791058E+02  (-0.1801367E+01)
 number of electron     176.0000002 magnetization      -1.0793869
 augmentation part       44.4354360 magnetization      -0.9317822

 Broyden mixing:
  rms(total) = 0.23427E+02    rms(broyden)= 0.23427E+02
  rms(prec ) = 0.27522E+02
  weight for this iteration     100.00

 eigenvalues of (default mixing * dielectric matrix)
  average eigenvalue GAMMA=   0.7945
  3.1968  2.0832  0.8893  0.8893  0.5458  0.5458  0.6873  0.6873  0.5474  0.3575
  0.2679  0.2679  0.1311  0.0263

 Free energy of the ion-electron system (eV)
  ---------------------------------------------------
  alpha Z        PSCENC =      2355.24349734
  Ewald energy   TEWEN  =    -20369.87665257
  -Hartree energ DENC   =     -4158.03184154
  -exchange      EXHF   =         0.00000000
  -V(xc)+E(xc)   XCENC  =       695.28982544
  PAW double counting   =     61936.07427785   -62849.71156830
  entropy T*S    EENTRO =         0.00000000
  eigenvalues    EBANDS =     -2049.83326472
  atomic energy  EATOM  =     24233.14077129
  Solvation  Ediel_sol  =         0.00000000
  ---------------------------------------------------
  free energy    TOTEN  =      -207.70495522 eV

  energy without entropy =     -207.70495522  energy(sigma->0) =     -207.70495522


--------------------------------------------------------------------------------------------------------




--------------------------------------- Iteration      1(  20)  ---------------------------------------


    POTLOK:  cpu time      0.0084: real time      0.0096
    SETDIJ:  cpu time      2.0204: real time      2.0210
     EDDAV:  cpu time      3.6798: real time      3.6815
 BZINTS: Fermi energy:    3.794308;  176.000000 electrons
         Band energy:-0.219702E+04;  BLOECHL correction:   -0.007513
       DOS:  cpu time      0.0725: real time      0.0725
    CHARGE:  cpu time      0.2385: real time      0.2386
    MIXING:  cpu time      0.0036: real time      0.0036
    --------------------------------------------
      LOOP:  cpu time      6.0232: real time      6.0267

 eigenvalue-minimisations  :  8216
 total energy-change (2. order) : 0.6316396E+02  (-0.2059518E+01)
 number of electron     176.0000004 magnetization      -0.7259046
 augmentation part       69.7041166 magnetization      -0.0759668

 Broyden mixing:
  rms(total) = 0.12120E+02    rms(broyden)= 0.12120E+02
  rms(prec ) = 0.12458E+02
  weight for this iteration     100.00

 eigenvalues of (default mixing * dielectric matrix)
  average eigenvalue GAMMA=   0.7602
  3.2425  2.1206  0.8695  0.8695  0.5719  0.5719  0.6784  0.6784  0.5399  0.3778
  0.2688  0.2688  0.1830  0.1354  0.0263

 Free energy of the ion-electron system (eV)
  ---------------------------------------------------
  alpha Z        PSCENC =      2355.24349734
  Ewald energy   TEWEN  =    -20369.87665257
  -Hartree energ DENC   =     -4018.34753649
  -exchange      EXHF   =         0.00000000
  -V(xc)+E(xc)   XCENC  =       689.48148629
  PAW double counting   =     38954.72816787   -39791.88624229
  entropy T*S    EENTRO =         0.00000000
  eigenvalues    EBANDS =     -2197.02448410
  atomic energy  EATOM  =     24233.14077129
  Solvation  Ediel_sol  =         0.00000000
  ---------------------------------------------------
  free energy    TOTEN  =      -144.54099266 eV

  energy without entropy =     -144.54099266  energy(sigma->0) =     -144.54099266


--------------------------------------------------------------------------------------------------------




--------------------------------------- Iteration      1(  21)  ---------------------------------------


    POTLOK:  cpu time      0.0089: real time      0.0096
    SETDIJ:  cpu time      2.0159: real time      2.0166
     EDDAV:  cpu time      3.6778: real time      3.6796
 BZINTS: Fermi energy:    5.005001;  176.000000 electrons
         Band energy:-0.216263E+04;  BLOECHL correction:   -0.007355
       DOS:  cpu time      0.0731: real time      0.0731
    CHARGE:  cpu time      0.2426: real time      0.2433
    MIXING:  cpu time      0.0038: real time      0.0038
    --------------------------------------------
      LOOP:  cpu time      6.0221: real time      6.0261

 eigenvalue-minimisations  :  8224
 total energy-change (2. order) :-0.1337074E+01  (-0.1175425E+01)
 number of electron     176.0000003 magnetization      -0.5773065
 augmentation part       59.2297622 magnetization      -0.4552384

 Broyden mixing:
  rms(total) = 0.11046E+02    rms(broyden)= 0.11046E+02
  rms(prec ) = 0.12302E+02
  weight for this iteration     100.00

 eigenvalues of (default mixing * dielectric matrix)
  average eigenvalue GAMMA=   0.7187
  3.2476  2.1243  0.8618  0.8618  0.5826  0.5826  0.6737  0.6737  0.5369  0.3751
  0.2672  0.2672  0.1357  0.1413  0.1413  0.0263

 Free energy of the ion-electron system (eV)
  ---------------------------------------------------
  alpha Z        PSCENC =      2355.24349734
  Ewald energy   TEWEN  =    -20369.87665257
  -Hartree energ DENC   =     -4022.07542337
  -exchange      EXHF   =         0.00000000
  -V(xc)+E(xc)   XCENC  =       689.52204752
  PAW double counting   =     37062.02504059   -37931.22510551
  entropy T*S    EENTRO =         0.00000000
  eigenvalues    EBANDS =     -2162.63224145
  atomic energy  EATOM  =     24233.14077129
  Solvation  Ediel_sol  =         0.00000000
  ---------------------------------------------------
  free energy    TOTEN  =      -145.87806617 eV

  energy without entropy =     -145.87806617  energy(sigma->0) =     -145.87806617


--------------------------------------------------------------------------------------------------------




--------------------------------------- Iteration      1(  22)  ---------------------------------------


    POTLOK:  cpu time      0.0089: real time      0.0096
    SETDIJ:  cpu time      2.0209: real time      2.0217
     EDDAV:  cpu time      3.9055: real time      3.9080
 BZINTS: Fermi energy:    5.748357;  176.000000 electrons
         Band energy:-0.215145E+04;  BLOECHL correction:   -0.011709
       DOS:  cpu time      0.0668: real time      0.0669
    CHARGE:  cpu time      0.2377: real time      0.2379
    MIXING:  cpu time      0.0037: real time      0.0037
    --------------------------------------------
      LOOP:  cpu time      6.2435: real time      6.2478

 eigenvalue-minimisations  :  8800
 total energy-change (2. order) :-0.1589526E+02  (-0.6780339E+00)
 number of electron     176.0000003 magnetization      -0.5873776
 augmentation part       54.2023951 magnetization      -0.4820286

 Broyden mixing:
  rms(total) = 0.10965E+02    rms(broyden)= 0.10965E+02
  rms(prec ) = 0.14181E+02
  weight for this iteration     100.00

 eigenvalues of (default mixing * dielectric matrix)
  average eigenvalue GAMMA=   0.6954
  3.2331  2.1083  0.8706  0.8706  0.5839  0.5839  0.6702  0.6702  0.5440  0.3633
[...]
  288          m_sumb_d                              0.000008                          2   4
  289        strnlr                                1.332556                            1   3
  290          rspher_all                            0.173638                          9   4
  291          phaser                                0.322454                         90   4
  292          rpro_isp                              0.833227                         90   4
  293            fftwav_mpi                            0.172360                     5580   5
  294              fftwav                                0.165768                   5580   6
  295                fft3d                                 0.037580                 5580   7
  296            rpromu_acc                            0.363482                     1440   5
  297          m_sumb_d                              0.000012                          1   4
  298        fft3d_mpi                             0.003461                           22   3
  299          fftbrc_mpi                            0.002736                         22   4
  300            fftbas_plan_mpi                       0.002722                       22   5
  301              map_forward                           0.000989                     20   6
  302                map_gather                            0.000210                   10   7
  303                m_alltoallv_z                         0.000148                   10   7
  304                map_scatter                           0.000484                   10   7
  305              map_backward                          0.001109                     24   6
  306                map_gather                            0.000257                   12   7
  307                m_alltoallv_z                         0.000151                   12   7
  308                map_scatter                           0.000502                   12   7
  309        m_sumb_d                              0.000027                            5   3
  310        forhar                                0.001078                            2   3
  311          m_sumb_d                              0.000048                          2   4
  312        strehar                               0.001309                            1   3
  313          m_sumb_d                              0.000023                          1   4
  314        chggra                                0.000819                            1   3
  315          fft3d_mpi                             0.000494                          3   4
  316            fftbrc_mpi                            0.000391                        3   5
  317              fftbas_plan_mpi                       0.000391                      3   6
  318                map_forward                           0.000217                    4   7
  319                  map_gather                            0.000042                  2   8
  320                  m_alltoallv_z                         0.000029                  2   8
  321                  map_scatter                           0.000118                  2   8
  322                map_backward                          0.000088                    2   7
  323                  map_gather                            0.000020                  1   8
  324                  m_alltoallv_z                         0.000013                  1   8
  325                  map_scatter                           0.000039                  1   8
  326          m_sumb_d                              0.000009                          2   4
  327          pothar                                0.000082                          1   4
  328            m_sumb_d                              0.000012                        1   5
  329        brmix                                 0.007746                            1   3
  330          m_sumb_d                              0.000062                          6   4
  331          brpre                                 0.000025                          2   4
  332          setg0                                 0.000868                          1   4
  333          broyd                                 0.005818                          1   4
  334            m_sumb_d                              0.000614                       50   5
  335            brget                                 0.001137                      224   5
  336            brsav                                 0.000244                       48   5
  337        m_bcast_d                             0.000022                            2   3
  338      potlok                                0.030080                              2   2
  339        fft3d_mpi                             0.020724                           36   3
  340          fftbrc_mpi                            0.017791                         36   4
  341            fftbas_plan_mpi                       0.017767                       36   5
  342              map_forward                           0.004992                     40   6
  343                map_gather                            0.001656                   24   7
  344                m_alltoallv_z                         0.001747                   24   7
  345                map_scatter                           0.001399                   24   7
  346              map_backward                          0.004396                     32   6
  347                map_gather                            0.001373                   16   7
  348                m_alltoallv_z                         0.001611                   16   7
  349                map_scatter                           0.001212                   16   7
  350              dfftw_execute                         0.006791                     30   6
  351        m_sumb_d                              0.000028                            5   3
  352        pothar                                0.001213                            2   3
  353          m_sumb_d                              0.000056                          2   4
  354        m_bcast_d                             0.002065                            4   3
  355      potlok_metagga                        0.000000                              1   2
  356      set_dd_magatom                        0.000004                              1   2
  357      set_dd_paw                            1.877449                              1   2
  358        m_sumb_d                              0.026662                            7   3
  359      augmentation_charge                   0.158697                              1   2
  360        fft3d_mpi                             0.040241                            2   3
  361          fftbrc_mpi                            0.036622                          2   4
  362            fftbas_plan_mpi                       0.036618                        2   5
  363              dfftw_execute                         0.024450                      6   6
  364              map_backward                          0.011888                      4   6
  365                map_gather                            0.002745                    2   7
  366                m_alltoallv_z                         0.005919                    2   7
  367                map_scatter                           0.003216                    2   7
  368      fftwav_mpi                            1.548069                           1860   2
  369        fftwav                                1.545783                         1860   3
  370          fft3d                                 1.475459                       1860   4
  371      densta                                1.318498                              1   2
 
 Flat profile
 ============
 
             routine name                   CPU           calls
 ---------------------------------------------------------------
 set_dd_paw                            354.649621         191
 eddav                                 140.393984         193
 lapack                                137.871695      272867
 raccmu_                               132.682564      272867
 m_sumb_d                              103.351352      838559
 redis_pw                               59.067011     1468773
 m_alltoall_d                           26.472406     3810997
 setdij_                                24.244139         217
 augmentation_charge                    22.625518         191
 phaser                                 14.091315        3990
 densta                                 14.043632         194
 fft3d                                  13.399032     1556999
 redis_proj                             12.265514     1876024
 eccp                                   11.802164      119660
 dfftw_execute                          11.781650        5028
 init_acc                               11.690724           1
 total_time                             11.576233           1
 fftwav                                  9.426158     1030108
 orth1                                   8.999901      818681
 racc0mu_acc                             8.089350      272867
 overl                                   7.722259      934142
 hamiltmu                                7.552037      272867
 w1_copy                                 7.531478     1580673
 rpromu_acc                              6.510122      213187
 m_bcast_z                               5.973009      275347
 soft_charge                             5.127155         190
 m_bcast_d                               4.721163      546121
 setup_precond                           4.313479      119660
 overl_mu                                4.173040      272867
 ggemm                                   3.631855      334627
 acc_init_cublas                         3.344090           1
 m_alltoallv_z                           2.869112        7423
 pw_charge                               2.598700       86066
 vhamil                                  2.396647      526891
 kinhamil                                2.378397      526891
 fftext_mpi                              2.238200      526891
 apply_precond                           2.213287      407231
 newband                                 1.987075      276727
 fft3d_mpi                               1.956140      533532
 depsum                                  1.933950         190
 map_scatter                             1.634457        7423
 set_charge                              1.601405         190
 map_gather                              1.401898        7423
 fftwav_mpi                              1.355892     1030108
 acc_init_cusolver                       1.054599           1
 potlok                                  0.710922         191
 broyd                                   0.626837         189
 rpro_isp                                0.413977         130
 elmin                                   0.351975           1
 fftbas_plan_mpi                         0.344635        6641
 acc_cufft_makeplan                      0.293569          19
 rspher_all                              0.259233          14
 brmix                                   0.255839         189
 w1_projall                              0.202028      211107
 brget                                   0.201441       40268
 setg0                                   0.167445         191
 lincom                                  0.144545        3880
 sphpro_fast                             0.080332           2
 proall                                  0.056590           1
 brsav                                   0.054731       11411
 truncate_high_frequency_w1              0.051641      646551
 map_backward                            0.042494        7010
 map_forward                             0.037019        6272
 choleski                                0.020196          20
 pothar                                  0.015463         192
 orthch                                  0.013741           1
 force_and_stress                        0.013258           1
 fft_gq                                  0.010767         190
 stufak                                  0.005366           1
 brpre                                   0.005081         378
 inisym                                  0.004643           1
 fftbrc_mpi                              0.004071        6641
 strnlr                                  0.003225           1
 strelo                                  0.001804           1
 strehar                                 0.001286           1
 fornlr                                  0.001138           1
 forhar                                  0.001030           2
 set_dd_magatom                          0.000865         191
 vectorpot                               0.000779         190
 strkin                                  0.000702           1
 forloc                                  0.000574           1
 fewald                                  0.000339           1
 chggra                                  0.000234           1
 rsp                                     0.000192           1
 brgrid                                  0.000184           1
 fordep                                  0.000099           1
 posmap                                  0.000059           2
 crpa_reader                             0.000026           1
 rcp                                     0.000019           1
 potlok_metagga                          0.000016         190
 acc_cufft_makeplans                     0.000009           3
 rotate_active_occupied_orbital          0.000001           1
 redis_pw_over_bands                     0.000000           1
 ---------------------------------------------------------------
  summed up times     1221.143831014633     
 
 Accumulative profile
 ====================
 
             routine name                   CPU           calls
 ---------------------------------------------------------------
 total_time                           1221.143831           1
 elmin                                1178.141287           1
 eddav                                 731.744883         193
 set_dd_paw                            358.666646         191
 hamiltmu                              163.404040      272867
 raccmu_                               144.944954      272867
 lapack                                137.871695      272867
 m_sumb_d                              103.351352      838559
 redis_pw                               72.146604     1468773
 set_charge                             45.817540         190
 setdij_                                34.782558         217
 augmentation_charge                    30.645615         191
 newband                                27.267410      276727
 m_alltoall_d                           26.472406     3810997
 redis_proj                             25.658326     1876024
 fft3d_mpi                              23.807665      533532
 fftwav_mpi                             20.444895     1030108
 fftwav                                 19.089003     1030108
 fftbrc_mpi                             18.115338        6641
 fftbas_plan_mpi                        18.111266        6641
 phaser                                 14.091315        3990
 densta                                 14.043632         194
 fft3d                                  13.399032     1556999
 eccp                                   11.802164      119660
 dfftw_execute                          11.781650        5028
 init_acc                               11.690724           1
 soft_charge                            11.521816         190
 orth1                                   8.999901      818681
 kinhamil                                8.510402      526891
 force_and_stress                        8.089996           1
 racc0mu_acc                             8.089350      272867
 overl                                   7.722259      934142
 w1_copy                                 7.531478     1580673
 rpromu_acc                              6.510122      213187
 w1_projall                              6.222192      211107
 fftext_mpi                              6.132005      526891
 m_bcast_z                               5.973009      275347
 m_bcast_d                               4.721163      546121
 setup_precond                           4.313479      119660
 overl_mu                                4.173040      272867
 ggemm                                   3.631855      334627
 acc_init_cublas                         3.344090           1
 map_backward                            3.254364        7010
 m_alltoallv_z                           2.869112        7423
 map_forward                             2.730617        6272
 pw_charge                               2.598700       86066
 vhamil                                  2.396647      526891
 apply_precond                           2.213287      407231
 depsum                                  1.962450         190
 potlok                                  1.714803         191
 map_scatter                             1.634457        7423
 brmix                                   1.446046         189
 map_gather                              1.401898        7423
 strnlr                                  1.332556           1
 rpro_isp                                1.143937         130
 acc_init_cusolver                       1.054599           1
 broyd                                   1.001267         189
 fordep                                  0.968531           1
 fornlr                                  0.445888           1
 orthch                                  0.383279           1
 fft_gq                                  0.350757         190
 acc_cufft_makeplans                     0.293578           3
 acc_cufft_makeplan                      0.293569          19
 rspher_all                              0.259233          14
 brget                                   0.201441       40268
 setg0                                   0.167445         191
 lincom                                  0.144545        3880
 proall                                  0.125487           1
 sphpro_fast                             0.083024           2
 brsav                                   0.054731       11411
 truncate_high_frequency_w1              0.051641      646551
 choleski                                0.020196          20
 pothar                                  0.017332         192
 stufak                                  0.005366           1
 brpre                                   0.005081         378
 inisym                                  0.004702           1
 strelo                                  0.001812           1
 strehar                                 0.001309           1
 forhar                                  0.001078           2
 forloc                                  0.000972           1
 set_dd_magatom                          0.000865         191
 chggra                                  0.000819           1
 vectorpot                               0.000779         190
 strkin                                  0.000715           1
 fewald                                  0.000624           1
 rsp                                     0.000192           1
 brgrid                                  0.000184           1
 posmap                                  0.000059           2
 crpa_reader                             0.000026           1
 rcp                                     0.000019           1
 potlok_metagga                          0.000016         190
 rotate_active_occupied_orbital          0.000001           1
 redis_pw_over_bands                     0.000000           1
 ---------------------------------------------------------------
 
Profiling took   3.343651  1.640408  0.003430  0.003333 seconds
Profiling took   2.114043 seconds
