 vasp.6.3.2 27Jun22 (build Jul  3 2023 11:46:21) complex                         
 executed on    LinuxNV_CrayMPICH date 2024.04.18  19:34:48
 running on    4 total cores
 distrk:  each k-point on    4 cores,    1 groups
 distr:  one band on NCORE=   1 cores,    4 groups


--------------------------------------------------------------------------------------------------------


 INCAR:
   ADDGRID = True
   ALGO = Normal
   EDIFF = 0.0014
   ENCUT = 520.0
   IBRION = -1
   ICHARG = 0
   ISIF = 3
   ISMEAR = -5
   ISPIN = 2
   KPOINT_BSE = -1 0 0 0
   LAECHG = True
   LASPH = True
   LCHARG = True
   LELF = True
   LORBIT = 11
   LREAL = Auto
   LVHAR = True
   LWAVE = False
   MAGMOM = 4*7.0 24*0.6
   NELM = 1000
   NSW = 0
   PREC = accurate
   SIGMA = 0.05

 POTCAR:    PAW_PBE Eu 23Dec2003                  
 POTCAR:    PAW_PBE Y_sv 25May2007                
 POTCAR:    PAW_PBE O 08Apr2002                   
 POTCAR:    PAW_PBE Eu 23Dec2003                  
   SHA256 =  ed303d27e7c5191953f9b15539336e6f36d9037c1d2e92e80c13d733697cb93d Eu/POTCAR             
   COPYR  = (c) Copyright 23Dec2003 Georg Kresse                                                    
   COPYR  = This file is part of the software VASP. Any use, copying, and all other rights are regul
   COPYR  = If you do not have a valid VASP license, you may not use, copy or distribute this file. 
   VRHFIN =Eu : [core=Kr4d]                                                                         
   LEXCH  = PE                                                                                      
   EATOM  =  2619.8085 eV,  192.5505 Ry                                                             
                                                                                                    
   TITEL  = PAW_PBE Eu 23Dec2003                                                                    
   LULTRA =        F    use ultrasoft PP ?                                                          
   IUNSCR =        1    unscreen: 0-lin 1-nonlin 2-no                                               
   RPACOR =    2.300    partial core radius                                                         
   POMASS =  151.965; ZVAL   =   17.000    mass and valenz                                          
   RCORE  =    2.800    outmost cutoff radius                                                       
   RWIGS  =    2.800; RWIGS  =    1.482    wigner-seitz radius (au A)                               
   ENMAX  =  249.668; ENMIN  =  187.251 eV                                                          
   RCLOC  =    2.308    cutoff for local pot                                                        
   LCOR   =        T    correct aug charges                                                         
   LPAW   =        T    paw PP                                                                      
   EAUG   =  549.628                                                                                
   DEXC   =    0.000                                                                                
   RMAX   =    2.870    core radius for proj-oper                                                   
   RAUG   =    1.300    factor for augmentation sphere                                              
   RDEP   =    2.887    radius for radial grids                                                     
   RDEPT  =    2.221    core radius for aug-charge                                                  
                                                                                                    
   Atomic configuration                                                                             
   14 entries                                                                                       
     n  l   j            E        occ.                                                              
     1  0  0.50    -48354.7667   2.0000                                                             
     2  0  0.50     -7939.6472   2.0000                                                             
     2  1  1.50     -7072.6637   6.0000                                                             
     3  0  0.50     -1747.1875   2.0000                                                             
     3  1  1.50     -1477.5221   6.0000                                                             
     3  2  2.50     -1117.4686  10.0000                                                             
     4  0  0.50      -346.8682   2.0000                                                             
     4  1  1.50      -258.1962   6.0000                                                             
     4  2  2.50      -134.7724  10.0000                                                             
     5  0  0.50       -44.6510   2.0000                                                             
     6  0  0.50        -3.6227   2.0000                                                             
     5  1  1.50       -23.7639   6.0000                                                             
     5  2  2.50        -1.3130   0.0000                                                             
     4  3  2.50        -2.7310   7.0000                                                             
   Description                                                                                      
     l       E           TYP  RCUT    TYP  RCUT                                                     
     0    -44.6510453     23  2.400                                                                 
     0     -3.6226685     23  2.400                                                                 
     1    -23.7638687     23  2.400                                                                 
     1     27.2116520     23  2.400                                                                 
     2     -1.3129622     23  2.500                                                                 
     2     13.6058260     23  2.500                                                                 
     3     -2.7309948     23  2.800                                                                 
     3     -3.4014565     23  2.800                                                                 
  local pseudopotential read in
  partial core-charges read in
  partial kinetic energy density read in
  atomic valenz-charges read in
  non local Contribution for L=            0  read in
    real space projection operators read in
  non local Contribution for L=            0  read in
    real space projection operators read in
  non local Contribution for L=            1  read in
    real space projection operators read in
  non local Contribution for L=            1  read in
    real space projection operators read in
  non local Contribution for L=            2  read in
    real space projection operators read in
  non local Contribution for L=            2  read in
    real space projection operators read in
  non local Contribution for L=            3  read in
    real space projection operators read in
  non local Contribution for L=            3  read in
    real space projection operators read in
    PAW grid and wavefunctions read in
 
   number of l-projection  operators is LMAX  =            8
   number of lm-projection operators is LMMAX =           32
 
 POTCAR:    PAW_PBE Y_sv 25May2007                
   SHA256 =  5e7f7496c6fa99024fec326bcd60dcee8ff7e886f9613d31da35c685a538a036 Y_sv/POTCAR           
   COPYR  = (c) Copyright 25May2007 Georg Kresse                                                    
   COPYR  = This file is part of the software VASP. Any use, copying, and all other rights are regul
   COPYR  = If you do not have a valid VASP license, you may not use, copy or distribute this file. 
   VRHFIN =Y: 4s4p5s4d                                                                              
   LEXCH  = PE                                                                                      
   EATOM  =  1046.9140 eV,   76.9460 Ry                                                             
                                                                                                    
   TITEL  = PAW_PBE Y_sv 25May2007                                                                  
   LULTRA =        F    use ultrasoft PP ?                                                          
   IUNSCR =        1    unscreen: 0-lin 1-nonlin 2-no                                               
   RPACOR =    2.200    partial core radius                                                         
   POMASS =   88.906; ZVAL   =   11.000    mass and valenz                                          
   RCORE  =    2.800    outmost cutoff radius                                                       
   RWIGS  =    3.430; RWIGS  =    1.815    wigner-seitz radius (au A)                               
   ENMAX  =  202.626; ENMIN  =  151.970 eV                                                          
   RCLOC  =    2.212    cutoff for local pot                                                        
   LCOR   =        T    correct aug charges                                                         
   LPAW   =        T    paw PP                                                                      
   EAUG   =  470.889                                                                                
   DEXC   =    0.000                                                                                
   RMAX   =    2.863    core radius for proj-oper                                                   
   RAUG   =    1.300    factor for augmentation sphere                                              
   RDEP   =    2.926    radius for radial grids                                                     
   RDEPT  =    2.280    core radius for aug-charge                                                  
                                                                                                    
   Atomic configuration                                                                             
   11 entries                                                                                       
     n  l   j            E        occ.                                                              
     1  0  0.50    -16863.0720   2.0000                                                             
     2  0  0.50     -2309.2881   2.0000                                                             
     2  1  1.50     -2055.5536   6.0000                                                             
     3  0  0.50      -367.1837   2.0000                                                             
     3  1  1.50      -284.8912   6.0000                                                             
     3  2  2.50      -149.4324  10.0000                                                             
     4  0  0.50       -46.3345   2.0000                                                             
     5  0  0.50        -3.6387   1.0000                                                             
     4  1  1.50       -26.3769   6.0000                                                             
     4  2  2.50        -1.6291   2.0000                                                             
     4  3  2.50        -1.3606   0.0000                                                             
   Description                                                                                      
     l       E           TYP  RCUT    TYP  RCUT                                                     
     0    -46.3344714     23  2.600                                                                 
     0     -3.6387002     23  2.700                                                                 
     1    -26.3769044     23  2.600                                                                 
     1    -27.7374870     23  2.600                                                                 
     2     -1.6291019     23  2.600                                                                 
     2      0.1354037     23  2.600                                                                 
     3     -1.3605826     23  2.800                                                                 
  local pseudopotential read in
  partial core-charges read in
  partial kinetic energy density read in
  atomic valenz-charges read in
  non local Contribution for L=            0  read in
    real space projection operators read in
  non local Contribution for L=            0  read in
    real space projection operators read in
  non local Contribution for L=            1  read in
    real space projection operators read in
  non local Contribution for L=            1  read in
    real space projection operators read in
  non local Contribution for L=            2  read in
    real space projection operators read in
  non local Contribution for L=            2  read in
    real space projection operators read in
  non local Contribution for L=            3  read in
    real space projection operators read in
    PAW grid and wavefunctions read in
 
   number of l-projection  operators is LMAX  =            7
   number of lm-projection operators is LMMAX =           25
 
 POTCAR:    PAW_PBE O 08Apr2002                   
   SHA256 =  818f92134a0a090dccd8ba1447fa70422a3b330e708bb4f08108d8ae51209ddf O/POTCAR              
   COPYR  = (c) Copyright 08Apr2002 Georg Kresse                                                    
   COPYR  = This file is part of the software VASP. Any use, copying, and all other rights are regul
   COPYR  = If you do not have a valid VASP license, you may not use, copy or distribute this file. 
   VRHFIN =O: s2p4                                                                                  
   LEXCH  = PE                                                                                      
   EATOM  =   432.3788 eV,   31.7789 Ry                                                             
                                                                                                    
   TITEL  = PAW_PBE O 08Apr2002                                                                     
   LULTRA =        F    use ultrasoft PP ?                                                          
   IUNSCR =        1    unscreen: 0-lin 1-nonlin 2-no                                               
   RPACOR =    1.200    partial core radius                                                         
   POMASS =   16.000; ZVAL   =    6.000    mass and valenz                                          
   RCORE  =    1.520    outmost cutoff radius                                                       
   RWIGS  =    1.550; RWIGS  =    0.820    wigner-seitz radius (au A)                               
   ENMAX  =  400.000; ENMIN  =  300.000 eV                                                          
   ICORE  =        2    local potential                                                             
   LCOR   =        T    correct aug charges                                                         
   LPAW   =        T    paw PP                                                                      
   EAUG   =  605.392                                                                                
   DEXC   =    0.000                                                                                
   RMAX   =    1.553    core radius for proj-oper                                                   
   RAUG   =    1.300    factor for augmentation sphere                                              
   RDEP   =    1.550    radius for radial grids                                                     
   RDEPT  =    1.329    core radius for aug-charge                                                  
                                                                                                    
   Atomic configuration                                                                             
    4 entries                                                                                       
     n  l   j            E        occ.                                                              
     1  0  0.50      -514.6923   2.0000                                                             
     2  0  0.50       -23.9615   2.0000                                                             
     2  1  0.50        -9.0305   4.0000                                                             
     3  2  1.50        -9.5241   0.0000                                                             
   Description                                                                                      
     l       E           TYP  RCUT    TYP  RCUT                                                     
     0    -23.9615318     23  1.200                                                                 
     0     -9.5240782     23  1.200                                                                 
     1     -9.0304911     23  1.520                                                                 
     1      8.1634956     23  1.520                                                                 
     2     -9.5240782      7  1.500                                                                 
  local pseudopotential read in
  partial core-charges read in
  partial kinetic energy density read in
  kinetic energy density of atom read in
  atomic valenz-charges read in
  non local Contribution for L=            0  read in
    real space projection operators read in
  non local Contribution for L=            0  read in
    real space projection operators read in
  non local Contribution for L=            1  read in
    real space projection operators read in
  non local Contribution for L=            1  read in
    real space projection operators read in
    PAW grid and wavefunctions read in
 
   number of l-projection  operators is LMAX  =            4
   number of lm-projection operators is LMMAX =            8
 
 Optimization of the real space projectors (new method)

 maximal supplied QI-value         = 13.42
 optimisation between [QCUT,QGAM] = [ 11.67, 23.35] = [ 38.16,152.62] Ry 
 Optimized for a Real-space Cutoff    1.63 Angstroem

   l    n(q)    QCUT    max X(q) W(low)/X(q) W(high)/X(q)  e(spline) 
   0     11    11.673    10.400    0.14E-04    0.18E-05    0.24E-07
   0     11    11.673    10.768    0.21E-04    0.32E-05    0.49E-07
   1     11    11.673     4.094    0.40E-05    0.13E-04    0.93E-07
   1     11    11.673     4.009    0.11E-04    0.46E-04    0.33E-06
   2     10    11.673    29.030    0.79E-04    0.60E-04    0.70E-06
   2     10    11.673    19.941    0.80E-04    0.60E-04    0.71E-06
   3     10    11.673    88.889    0.23E-03    0.29E-03    0.30E-06
   3     10    11.673    76.102    0.23E-03    0.30E-03    0.30E-06
 Optimization of the real space projectors (new method)

 maximal supplied QI-value         = 13.42
 optimisation between [QCUT,QGAM] = [ 11.67, 23.35] = [ 38.16,152.62] Ry 
 Optimized for a Real-space Cutoff    1.68 Angstroem

   l    n(q)    QCUT    max X(q) W(low)/X(q) W(high)/X(q)  e(spline) 
   0     12    11.673    14.902    0.22E-04    0.24E-05    0.52E-07
   0     12    11.673     9.294    0.34E-04    0.58E-05    0.89E-07
   1     11    11.673    69.520    0.10E-04    0.47E-04    0.49E-06
   1     11    11.673    72.085    0.10E-04    0.48E-04    0.50E-06
   2     11    11.673    62.934    0.94E-04    0.14E-04    0.82E-06
   2     11    11.673    49.749    0.91E-04    0.13E-04    0.79E-06
   3     10    11.673     8.311    0.92E-04    0.21E-04    0.59E-06
 Optimization of the real space projectors (new method)

 maximal supplied QI-value         = 24.76
 optimisation between [QCUT,QGAM] = [ 11.64, 23.27] = [ 37.91,151.63] Ry 
 Optimized for a Real-space Cutoff    1.14 Angstroem

   l    n(q)    QCUT    max X(q) W(low)/X(q) W(high)/X(q)  e(spline) 
   0      8    11.635    20.381    0.10E-03    0.33E-03    0.24E-06
   0      8    11.635    15.268    0.11E-03    0.35E-03    0.26E-06
   1      7    11.635     5.964    0.24E-03    0.31E-03    0.30E-06
   1      7    11.635     5.382    0.22E-03    0.25E-03    0.26E-06
  PAW_PBE Eu 23Dec2003                  :
 energy of atom  1       EATOM=-2619.8085
 kinetic energy error for atom=    0.0015 (will be added to EATOM!!)
  PAW_PBE Y_sv 25May2007                :
 energy of atom  2       EATOM=-1046.9140
 kinetic energy error for atom=    0.0008 (will be added to EATOM!!)
  PAW_PBE O 08Apr2002                   :
 energy of atom  3       EATOM= -432.3788
 kinetic energy error for atom=    0.0208 (will be added to EATOM!!)
 
 
 POSCAR: Eu4 Y8 O16
  positions in direct lattice
  No initial velocities read in
 exchange correlation table for  LEXCH =        8
   RHO(1)=    0.500       N(1)  =     2000
   RHO(2)=  100.500       N(2)  =     4000

 VTST: version 4.2, (08/11/21)

 CHAIN: initializing optimizer
 
 OPT: Using VASP Dynamics algorithm
 CHAIN: Read ICHAIN             0
 
 POSCAR: Eu4 Y8 O16
  positions in direct lattice
  No initial velocities read in
 


--------------------------------------------------------------------------------------------------------


 ion  position               nearest neighbor table
   1  0.750  0.746  0.149-  15 2.58  15 2.58  19 2.60  19 2.60  16 2.73  16 2.73   5 3.34   9 3.37
                             6 3.52  11 3.75  11 3.75   7 3.81   7 3.81
   2  0.250  0.754  0.649-  18 2.58  18 2.58  14 2.60  14 2.60  17 2.73  17 2.73   8 3.34  12 3.37
                             7 3.52  10 3.75  10 3.75   6 3.81   6 3.81
   3  0.750  0.246  0.351-  23 2.58  23 2.58  27 2.60  27 2.60  24 2.73  24 2.73   9 3.34   5 3.37
                            10 3.52   7 3.75   7 3.75  11 3.81  11 3.81
   4  0.250  0.254  0.851-  26 2.58  26 2.58  22 2.60  22 2.60  25 2.73  25 2.73  12 3.34   8 3.37
                            11 3.52   6 3.75   6 3.75  10 3.81  10 3.81
   5  0.750  0.576  0.387-  28 2.27  14 2.28  16 2.32  16 2.32  27 2.37  27 2.37   1 3.34   3 3.37
                            12 3.55  12 3.55   7 3.89   7 3.89  11 4.07  11 4.07
   6  0.750  0.580  0.891-  13 2.22  13 2.22  17 2.28  26 2.31  15 2.38  15 2.38  11 3.52  11 3.52
                             1 3.52   4 3.75   4 3.75   2 3.81   2 3.81   8 3.89   8 3.89  12 4.07
   7  0.250  0.920  0.391-  20 2.22  20 2.22  16 2.28  23 2.31  18 2.38  18 2.38  10 3.52  10 3.52
                             2 3.52   3 3.75   3 3.75   1 3.81   1 3.81   5 3.89   5 3.89   9 4.07
   8  0.250  0.924  0.887-  21 2.27  19 2.28  17 2.32  17 2.32  22 2.37  22 2.37   2 3.34   4 3.37
                             9 3.55   9 3.55   6 3.89   6 3.89  10 4.07  10 4.07
   9  0.750  0.076  0.113-  20 2.27  22 2.28  24 2.32  24 2.32  19 2.37  19 2.37   3 3.34   1 3.37
                             8 3.55   8 3.55  11 3.89  11 3.89   7 4.07   7 4.07
  10  0.750  0.080  0.609-  21 2.22  21 2.22  25 2.28  18 2.31  23 2.38  23 2.38   7 3.52   7 3.52
                             3 3.52   2 3.75   2 3.75   4 3.81   4 3.81  12 3.89  12 3.89   8 4.07
  11  0.250  0.420  0.109-  28 2.22  28 2.22  24 2.28  15 2.31  26 2.38  26 2.38   6 3.52   6 3.52
                             4 3.52   1 3.75   1 3.75   3 3.81   3 3.81   9 3.89   9 3.89   5 4.07
  12  0.250  0.424  0.613-  13 2.27  27 2.28  25 2.32  25 2.32  14 2.37  14 2.37   4 3.34   2 3.37
                             5 3.55   5 3.55  10 3.89  10 3.89   6 4.07   6 4.07
  13  0.250  0.521  0.783-   6 2.22   6 2.22  12 2.27
  14  0.750  0.580  0.577-   5 2.28  12 2.37  12 2.37   2 2.60   2 2.60
  15  0.250  0.625  0.024-  11 2.31   6 2.38   6 2.38   1 2.58   1 2.58
  16  0.250  0.711  0.323-   7 2.28   5 2.32   5 2.32   1 2.73   1 2.73
  17  0.750  0.789  0.823-   6 2.28   8 2.32   8 2.32   2 2.73   2 2.73
  18  0.750  0.875  0.524-  10 2.31   7 2.38   7 2.38   2 2.58   2 2.58
  19  0.250  0.920  0.077-   8 2.28   9 2.37   9 2.37   1 2.60   1 2.60
  20  0.750  0.979  0.283-   7 2.22   7 2.22   9 2.27
  21  0.250  0.021  0.717-  10 2.22  10 2.22   8 2.27
  22  0.750  0.080  0.923-   9 2.28   8 2.37   8 2.37   4 2.60   4 2.60
  23  0.250  0.125  0.476-   7 2.31  10 2.38  10 2.38   3 2.58   3 2.58
  24  0.250  0.211  0.177-  11 2.28   9 2.32   9 2.32   3 2.73   3 2.73
  25  0.750  0.289  0.677-  10 2.28  12 2.32  12 2.32   4 2.73   4 2.73
  26  0.750  0.375  0.976-   6 2.31  11 2.38  11 2.38   4 2.58   4 2.58
  27  0.250  0.420  0.423-  12 2.28   5 2.37   5 2.37   3 2.60   3 2.60
  28  0.750  0.479  0.217-  11 2.22  11 2.22   5 2.27
 
  LATTYP: Found a simple orthorhombic cell.
 ALAT       =     3.4218650000
 B/A-ratio  =     2.9631873262
 C/A-ratio  =     3.5082123345
  
  Lattice vectors:
  
 A1 = (   3.4218650000,   0.0000000000,   0.0000000000)
 A2 = (   0.0000000000,  10.1396270000,   0.0000000000)
 A3 = (   0.0000000000,   0.0000000000,  12.0046290000)


Analysis of symmetry for initial positions (statically):
=====================================================================
 Subroutine PRICEL returns:
 Original cell was already a primitive cell.
 

 Routine SETGRP: Setting up the symmetry group for a 
 simple orthorhombic supercell.


 Subroutine GETGRP returns: Found  8 space group operations
 (whereof  2 operations were pure point group operations)
 out of a pool of  8 trial point group operations.


The static configuration has the point symmetry S_2 .
 The point group associated with its full space group is D_2h.


Analysis of symmetry for dynamics (positions and initial velocities):
=====================================================================
 Subroutine PRICEL returns:
 Original cell was already a primitive cell.
 

 Routine SETGRP: Setting up the symmetry group for a 
 simple orthorhombic supercell.


 Subroutine GETGRP returns: Found  8 space group operations
 (whereof  2 operations were pure point group operations)
 out of a pool of  8 trial point group operations.


The dynamic configuration has the point symmetry S_2 .
 The point group associated with its full space group is D_2h.


Analysis of structural, dynamic, and magnetic symmetry:
=====================================================================
 Subroutine PRICEL returns:
 Original cell was already a primitive cell.
 

 Routine SETGRP: Setting up the symmetry group for a 
 simple orthorhombic supercell.


 Subroutine GETGRP returns: Found  8 space group operations
 (whereof  2 operations were pure point group operations)
 out of a pool of  8 trial point group operations.


The overall configuration has the point symmetry S_2 .
 The point group associated with its full space group is D_2h.


 Subroutine INISYM returns: Found  8 space group operations
 (whereof  2 operations are pure point group operations),
 and found     1 'primitive' translations


----------------------------------------------------------------------------------------

                                     Primitive cell                                     

  volume of cell :     416.5178

  direct lattice vectors                    reciprocal lattice vectors
     3.421865000  0.000000000  0.000000000     0.292238297  0.000000000  0.000000000
     0.000000000 10.139627000  0.000000000     0.000000000  0.098622957  0.000000000
     0.000000000  0.000000000 12.004629000     0.000000000  0.000000000  0.083301200

  length of vectors
     3.421865000 10.139627000 12.004629000     0.292238297  0.098622957  0.083301200

  position of ions in fractional coordinates (direct lattice)
     0.750000000  0.745590000  0.148733000
     0.250000000  0.754410000  0.648733000
     0.750000000  0.245590000  0.351267000
     0.250000000  0.254410000  0.851267000
     0.750000000  0.575510000  0.387109000
     0.750000000  0.579770000  0.890914000
     0.250000000  0.920230000  0.390914000
     0.250000000  0.924490000  0.887109000
     0.750000000  0.075510000  0.112891000
     0.750000000  0.079770000  0.609086000
     0.250000000  0.420230000  0.109086000
     0.250000000  0.424490000  0.612891000
     0.250000000  0.521470000  0.783239000
     0.750000000  0.580421000  0.577248000
     0.250000000  0.624854000  0.023857000
     0.250000000  0.710651000  0.323242000
     0.750000000  0.789349000  0.823242000
     0.750000000  0.875146000  0.523857000
     0.250000000  0.919579000  0.077248000
     0.750000000  0.978530000  0.283239000
     0.250000000  0.021470000  0.716761000
     0.750000000  0.080421000  0.922752000
     0.250000000  0.124854000  0.476143000
     0.250000000  0.210651000  0.176758000
     0.750000000  0.289349000  0.676758000
     0.750000000  0.375146000  0.976143000
     0.250000000  0.419579000  0.422752000
     0.750000000  0.478530000  0.216761000

  ion indices of the primitive-cell ions
   primitive index   ion index
                 1           1
                 2           2
                 3           3
                 4           4
                 5           5
                 6           6
                 7           7
                 8           8
                 9           9
                10          10
                11          11
                12          12
                13          13
                14          14
                15          15
                16          16
                17          17
                18          18
                19          19
                20          20
                21          21
                22          22
                23          23
                24          24
                25          25
                26          26
                27          27
                28          28

----------------------------------------------------------------------------------------

 
 
 KPOINTS: Kpoints from vasprun.xml                

Automatic generation of k-mesh.
 Grid dimensions read from file:
 generate k-points for:    8    2    2

 Generating k-lattice:

  Cartesian coordinates                     Fractional coordinates (reciprocal lattice)
     0.036529787  0.000000000  0.000000000     0.125000000  0.000000000  0.000000000
     0.000000000  0.049311479  0.000000000     0.000000000  0.500000000  0.000000000
     0.000000000  0.000000000  0.041650600     0.000000000  0.000000000  0.500000000

  Length of vectors
     0.036529787  0.049311479  0.041650600

  Shift w.r.t. Gamma in fractional coordinates (k-lattice)
     0.000000000  0.000000000  0.000000000

 TETIRR: Found     96 inequivalent tetrahedra from      192
 
 Subroutine IBZKPT returns following result:
 ===========================================
 
 Found     20 irreducible k-points:
 
 Following reciprocal coordinates:
            Coordinates               Weight
  0.000000  0.000000  0.000000      1.000000
  0.125000  0.000000  0.000000      2.000000
  0.250000  0.000000  0.000000      2.000000
  0.375000  0.000000  0.000000      2.000000
  0.500000  0.000000  0.000000      1.000000
  0.000000  0.500000  0.000000      1.000000
  0.125000  0.500000  0.000000      2.000000
  0.250000  0.500000  0.000000      2.000000
  0.375000  0.500000  0.000000      2.000000
  0.500000  0.500000  0.000000      1.000000
  0.000000  0.000000  0.500000      1.000000
  0.125000  0.000000  0.500000      2.000000
  0.250000  0.000000  0.500000      2.000000
  0.375000  0.000000  0.500000      2.000000
  0.500000  0.000000  0.500000      1.000000
  0.000000  0.500000  0.500000      1.000000
  0.125000  0.500000  0.500000      2.000000
  0.250000  0.500000  0.500000      2.000000
  0.375000  0.500000  0.500000      2.000000
  0.500000  0.500000  0.500000      1.000000
 
 Following cartesian coordinates:
            Coordinates               Weight
  0.000000  0.000000  0.000000      1.000000
  0.036530  0.000000  0.000000      2.000000
  0.073060  0.000000  0.000000      2.000000
  0.109589  0.000000  0.000000      2.000000
  0.146119  0.000000  0.000000      1.000000
  0.000000  0.049311  0.000000      1.000000
  0.036530  0.049311  0.000000      2.000000
  0.073060  0.049311  0.000000      2.000000
  0.109589  0.049311  0.000000      2.000000
  0.146119  0.049311  0.000000      1.000000
  0.000000  0.000000  0.041651      1.000000
  0.036530  0.000000  0.041651      2.000000
  0.073060  0.000000  0.041651      2.000000
  0.109589  0.000000  0.041651      2.000000
  0.146119  0.000000  0.041651      1.000000
  0.000000  0.049311  0.041651      1.000000
  0.036530  0.049311  0.041651      2.000000
  0.073060  0.049311  0.041651      2.000000
  0.109589  0.049311  0.041651      2.000000
  0.146119  0.049311  0.041651      1.000000
 


--------------------------------------------------------------------------------------------------------




 Dimension of arrays:
   k-points           NKPTS =     20   k-points in BZ     NKDIM =     20   number of bands    NBANDS=    172
   number of dos      NEDOS =    301   number of ions     NIONS =     28
   non local maximal  LDIM  =      8   non local SUM 2l+1 LMDIM =     32
   total plane-waves  NPLWV = 201600
   max r-space proj   IRMAX =   9595   max aug-charges    IRDMAX= 279310
   dimension x,y,z NGX =    28 NGY =   80 NGZ =   90
   dimension x,y,z NGXF=    56 NGYF=  160 NGZF=  180
   support grid    NGXF=   112 NGYF=  320 NGZF=  360
   ions per type =               4   8  16
   NGX,Y,Z   is equivalent  to a cutoff of  13.60, 13.12, 12.46 a.u.
   NGXF,Y,Z  is equivalent  to a cutoff of  27.21, 26.23, 24.93 a.u.

 SYSTEM =  unknown system                          
 POSCAR =  Eu4 Y8 O16                              

 Startparameter for this run:
   NWRITE =      2    write-flag & timer
   PREC   = accura    normal or accurate (medium, high low for compatibility)
   ISTART =      0    job   : 0-new  1-cont  2-samecut
   ICHARG =      0    charge: 1-file 2-atom 10-const
   ISPIN  =      2    spin polarized calculation?
   LNONCOLLINEAR =      F non collinear calculations
   LSORBIT =      F    spin-orbit coupling
   INIWAV =      1    electr: 0-lowe 1-rand  2-diag
   LASPH  =      T    aspherical Exc in radial PAW
 Electronic Relaxation 1
   ENCUT  =  520.0 eV  38.22 Ry    6.18 a.u.   6.36 18.85 22.32*2*pi/ulx,y,z
   ENINI  =  520.0     initial cutoff
   ENAUG  =  605.4 eV  augmentation charge cutoff
   NELM   =   1000;   NELMIN=  2; NELMDL= -5     # of ELM steps 
   EDIFF  = 0.1E-02   stopping-criterion for ELM
   LREAL  =      T    real-space projection
   NLSPLINE    = F    spline interpolate recip. space projectors
   LCOMPAT=      F    compatible to vasp.4.4
   GGA_COMPAT  = T    GGA compatible to vasp.4.4-vasp.4.6
   LMAXPAW     = -100 max onsite density
   LMAXMIX     =    2 max onsite mixed and CHGCAR
   VOSKOWN=      0    Vosko Wilk Nusair interpolation
   ROPT   =   -0.00025  -0.00025  -0.00025
 Ionic relaxation
   EDIFFG = 0.1E-01   stopping-criterion for IOM
   NSW    =      0    number of steps for IOM
   NBLOCK =      1;   KBLOCK =      1    inner block; outer block 
   IBRION =     -1    ionic relax: 0-MD 1-quasi-New 2-CG
   NFREE  =      0    steps in history (QN), initial steepest desc. (CG)
   ISIF   =      3    stress and relaxation
   IWAVPR =     10    prediction:  0-non 1-charg 2-wave 3-comb
   ISYM   =      2    0-nonsym 1-usesym 2-fastsym
   LCORR  =      T    Harris-Foulkes like correction to forces

   POTIM  = 0.5000    time-step for ionic-motion
   TEIN   =    0.0    initial temperature
   TEBEG  =    0.0;   TEEND  =   0.0 temperature during run
   SMASS  =  -3.00    Nose mass-parameter (am)
   estimated Nose-frequenzy (Omega)   =  0.10E-29 period in steps = 0.13E+47 mass=  -0.268E-27a.u.
   SCALEE = 1.0000    scale energy and forces
   NPACO  =    256;   APACO  = 10.0  distance and # of slots for P.C.
   PSTRESS=    0.0 pullay stress

  Mass of Ions in am
   POMASS = 151.97 88.91 16.00
  Ionic Valenz
   ZVAL   =  17.00 11.00  6.00
  Atomic Wigner-Seitz radii
   RWIGS  =  -1.00 -1.00 -1.00
  virtual crystal weights 
   VCA    =   1.00  1.00  1.00
   NELECT =     252.0000    total number of electrons
   NUPDOWN=      -1.0000    fix difference up-down

 DOS related values:
   EMIN   =  10.00;   EMAX   =-10.00  energy-range for DOS
   EFERMI =   0.00
   ISMEAR =    -5;   SIGMA  =   0.05  broadening in eV -4-tet -1-fermi 0-gaus

 Electronic relaxation 2 (details)
   IALGO  =     38    algorithm
   LDIAG  =      T    sub-space diagonalisation (order eigenvalues)
   LSUBROT=      F    optimize rotation matrix (better conditioning)
   TURBO    =      0    0=normal 1=particle mesh
   IRESTART =      0    0=no restart 2=restart with 2 vectors
   NREBOOT  =      0    no. of reboots
   NMIN     =      0    reboot dimension
   EREF     =   0.00    reference energy to select bands
   IMIX   =      4    mixing-type and parameters
     AMIX     =   0.40;   BMIX     =  1.00
     AMIX_MAG =   1.60;   BMIX_MAG =  1.00
     AMIN     =   0.10
     WC   =   100.;   INIMIX=   1;  MIXPRE=   1;  MAXMIX= -45

 Intra band minimization:
   WEIMIN = 0.0000     energy-eigenvalue tresh-hold
   EBREAK =  0.20E-05  absolut break condition
   DEPER  =   0.30     relativ break condition  

   TIME   =   0.40     timestep for ELM

  volume/ion in A,a.u.               =      14.88       100.39
  Fermi-wavevector in a.u.,A,eV,Ry     =   1.384620  2.616552 26.084702  1.917171
  Thomas-Fermi vector in A             =   2.509107
 
 Write flags
   LWAVE        =      F    write WAVECAR
   LDOWNSAMPLE  =      F    k-point downsampling of WAVECAR
   LCHARG       =      T    write CHGCAR
   LVTOT        =      F    write LOCPOT, total local potential
   LVHAR        =      T    write LOCPOT, Hartree potential only
   LELF         =      T    write electronic localiz. function (ELF)
   LORBIT       =     11    0 simple, 1 ext, 2 COOP (PROOUT), +10 PAW based schemes


 Dipole corrections
   LMONO  =      F    monopole corrections only (constant potential shift)
   LDIPOL =      F    correct potential (dipole corrections)
   IDIPOL =      0    1-x, 2-y, 3-z, 4-all directions 
   EPSILON=  1.0000000 bulk dielectric constant

 Exchange correlation treatment:
   GGA     =    --    GGA type
   LEXCH   =     8    internal setting for exchange type
   LIBXC   =     F    Libxc                    
   VOSKOWN =     0    Vosko Wilk Nusair interpolation
   LHFCALC =     F    Hartree Fock is set to
   LHFONE  =     F    Hartree Fock one center treatment
   AEXX    =    0.0000 exact exchange contribution

 Linear response parameters
   LEPSILON=     F    determine dielectric tensor
   LRPA    =     F    only Hartree local field effects (RPA)
   LNABLA  =     F    use nabla operator in PAW spheres
   LVEL    =     F    velocity operator in full k-point grid
   CSHIFT  =0.1000    complex shift for real part using Kramers Kronig
   OMEGAMAX=  -1.0    maximum frequency
   DEG_THRESHOLD= 0.2000000E-02 threshold for treating states as degnerate
   RTIME   =   -0.100 relaxation time in fs
  (WPLASMAI=    0.000 imaginary part of plasma frequency in eV, 0.658/RTIME)
   DFIELD  = 0.0000000 0.0000000 0.0000000 field for delta impulse in time
 
  Optional k-point grid parameters
   LKPOINTS_OPT  =     F    use optional k-point grid
   KPOINTS_OPT_MODE=     1    mode for optional k-point grid
 
 Orbital magnetization related:
   ORBITALMAG=     F  switch on orbital magnetization
   LCHIMAG   =     F  perturbation theory with respect to B field
   DQ        =  0.001000  dq finite difference perturbation B field
   LLRAUG    =     F  two centre corrections for induced B field



--------------------------------------------------------------------------------------------------------


 Static calculation
 charge density and potential will be updated during run
 spin polarized calculation
 Variant of blocked Davidson
 Davidson routine will perform the subspace rotation
 perform sub-space diagonalisation
    after iterative eigenvector-optimisation
 modified Broyden-mixing scheme, WC =      100.0
 initial mixing is a Kerker type mixing with AMIX =  0.4000 and BMIX =      1.0000
 Hartree-type preconditioning will be used
 using additional bands            46
 real space projection scheme for non local part
 use partial core corrections
 calculate Harris-corrections to forces 
   (improved forces if not selfconsistent)
 use gradient corrections 
 use of overlap-Matrix (Vanderbilt PP)
 Fermi weights with tetrahedron method with Bloechl corrections


--------------------------------------------------------------------------------------------------------


  energy-cutoff  :      520.00
  volume of cell :      416.52
      direct lattice vectors                 reciprocal lattice vectors
     3.421865000  0.000000000  0.000000000     0.292238297  0.000000000  0.000000000
     0.000000000 10.139627000  0.000000000     0.000000000  0.098622957  0.000000000
     0.000000000  0.000000000 12.004629000     0.000000000  0.000000000  0.083301200

  length of vectors
     3.421865000 10.139627000 12.004629000     0.292238297  0.098622957  0.083301200


 
 k-points in units of 2pi/SCALE and weight: Kpoints from vasprun.xml                
   0.00000000  0.00000000  0.00000000       0.031
   0.03652979  0.00000000  0.00000000       0.063
   0.07305957  0.00000000  0.00000000       0.063
   0.10958936  0.00000000  0.00000000       0.063
   0.14611915  0.00000000  0.00000000       0.031
   0.00000000  0.04931148  0.00000000       0.031
   0.03652979  0.04931148  0.00000000       0.063
   0.07305957  0.04931148  0.00000000       0.063
   0.10958936  0.04931148  0.00000000       0.063
   0.14611915  0.04931148  0.00000000       0.031
   0.00000000  0.00000000  0.04165060       0.031
   0.03652979  0.00000000  0.04165060       0.063
   0.07305957  0.00000000  0.04165060       0.063
   0.10958936  0.00000000  0.04165060       0.063
   0.14611915  0.00000000  0.04165060       0.031
   0.00000000  0.04931148  0.04165060       0.031
   0.03652979  0.04931148  0.04165060       0.063
   0.07305957  0.04931148  0.04165060       0.063
   0.10958936  0.04931148  0.04165060       0.063
   0.14611915  0.04931148  0.04165060       0.031
 
 k-points in reciprocal lattice and weights: Kpoints from vasprun.xml                
   0.00000000  0.00000000  0.00000000       0.031
   0.12500000  0.00000000  0.00000000       0.063
   0.25000000  0.00000000  0.00000000       0.063
   0.37500000  0.00000000  0.00000000       0.063
   0.50000000  0.00000000  0.00000000       0.031
   0.00000000  0.50000000  0.00000000       0.031
   0.12500000  0.50000000  0.00000000       0.063
   0.25000000  0.50000000  0.00000000       0.063
   0.37500000  0.50000000  0.00000000       0.063
   0.50000000  0.50000000  0.00000000       0.031
   0.00000000  0.00000000  0.50000000       0.031
   0.12500000  0.00000000  0.50000000       0.063
   0.25000000  0.00000000  0.50000000       0.063
   0.37500000  0.00000000  0.50000000       0.063
   0.50000000  0.00000000  0.50000000       0.031
   0.00000000  0.50000000  0.50000000       0.031
   0.12500000  0.50000000  0.50000000       0.063
   0.25000000  0.50000000  0.50000000       0.063
   0.37500000  0.50000000  0.50000000       0.063
   0.50000000  0.50000000  0.50000000       0.031
 
 position of ions in fractional coordinates (direct lattice) 
   0.75000000  0.74559000  0.14873300
   0.25000000  0.75441000  0.64873300
   0.75000000  0.24559000  0.35126700
   0.25000000  0.25441000  0.85126700
   0.75000000  0.57551000  0.38710900
   0.75000000  0.57977000  0.89091400
   0.25000000  0.92023000  0.39091400
   0.25000000  0.92449000  0.88710900
   0.75000000  0.07551000  0.11289100
   0.75000000  0.07977000  0.60908600
   0.25000000  0.42023000  0.10908600
   0.25000000  0.42449000  0.61289100
   0.25000000  0.52147000  0.78323900
   0.75000000  0.58042100  0.57724800
   0.25000000  0.62485400  0.02385700
   0.25000000  0.71065100  0.32324200
   0.75000000  0.78934900  0.82324200
   0.75000000  0.87514600  0.52385700
   0.25000000  0.91957900  0.07724800
   0.75000000  0.97853000  0.28323900
   0.25000000  0.02147000  0.71676100
   0.75000000  0.08042100  0.92275200
   0.25000000  0.12485400  0.47614300
   0.25000000  0.21065100  0.17675800
   0.75000000  0.28934900  0.67675800
   0.75000000  0.37514600  0.97614300
   0.25000000  0.41957900  0.42275200
   0.75000000  0.47853000  0.21676100
 
 position of ions in cartesian coordinates  (Angst):
   2.56639875  7.56000449  1.78548449
   0.85546625  7.64943601  7.78779899
   2.56639875  2.49019099  4.21683001
   0.85546625  2.57962251 10.21914451
   2.56639875  5.83545673  4.64709993
   2.56639875  5.87865155 10.69509204
   0.85546625  9.33078895  4.69277754
   0.85546625  9.37398377 10.64941443
   2.56639875  0.76564323  1.35521457
   2.56639875  0.80883805  7.31185146
   0.85546625  4.26097545  1.30953696
   0.85546625  4.30417027  7.35752907
   0.85546625  5.28751129  9.40249361
   2.56639875  5.88525244  6.92964808
   0.85546625  6.33578649  0.28639443
   0.85546625  7.20573607  3.88040029
   2.56639875  8.00370443  9.88271479
   2.56639875  8.87365401  6.28870893
   0.85546625  9.32418806  0.92733358
   2.56639875  9.92192921  3.40017911
   0.85546625  0.21769779  8.60444989
   2.56639875  0.81543894 11.07729542
   0.85546625  1.26597299  5.71592007
   0.85546625  2.13592257  2.12191421
   2.56639875  2.93389093  8.12422871
   2.56639875  3.80384051 11.71823457
   0.85546625  4.25437456  5.07498092
   2.56639875  4.85211571  2.60213539
 


--------------------------------------------------------------------------------------------------------


 k-point   1 :   0.0000 0.0000 0.0000  plane waves:   11225
 k-point   2 :   0.1250 0.0000 0.0000  plane waves:   11231
 k-point   3 :   0.2500 0.0000 0.0000  plane waves:   11241
 k-point   4 :   0.3750 0.0000 0.0000  plane waves:   11190
 k-point   5 :   0.5000 0.0000 0.0000  plane waves:   11232
 k-point   6 :   0.0000 0.5000 0.0000  plane waves:   11286
 k-point   7 :   0.1250 0.5000 0.0000  plane waves:   11240
 k-point   8 :   0.2500 0.5000 0.0000  plane waves:   11208
 k-point   9 :   0.3750 0.5000 0.0000  plane waves:   11198
 k-point  10 :   0.5000 0.5000 0.0000  plane waves:   11184
 k-point  11 :   0.0000 0.0000 0.5000  plane waves:   11272
 k-point  12 :   0.1250 0.0000 0.5000  plane waves:   11232
 k-point  13 :   0.2500 0.0000 0.5000  plane waves:   11216
 k-point  14 :   0.3750 0.0000 0.5000  plane waves:   11186
 k-point  15 :   0.5000 0.0000 0.5000  plane waves:   11212
 k-point  16 :   0.0000 0.5000 0.5000  plane waves:   11244
 k-point  17 :   0.1250 0.5000 0.5000  plane waves:   11244
 k-point  18 :   0.2500 0.5000 0.5000  plane waves:   11244
 k-point  19 :   0.3750 0.5000 0.5000  plane waves:   11196
 k-point  20 :   0.5000 0.5000 0.5000  plane waves:   11160

 maximum and minimum number of plane-waves per node :     11286    11160

 maximum number of plane-waves:     11286
 maximum index in each direction: 
   IXMAX=    6   IYMAX=   18   IZMAX=   22
   IXMIN=   -6   IYMIN=  -19   IZMIN=  -22


 serial   3D FFT for wavefunctions
 parallel 3D FFT for charge:
    minimum data exchange during FFTs selected (reduces bandwidth)


 total amount of memory used by VASP MPI-rank0   501571. kBytes
=======================================================================

   base      :      30000. kBytes
   nonlr-proj:      33764. kBytes
   fftplans  :      59858. kBytes
   grid      :      52003. kBytes
   one-center:       2752. kBytes
   wavefun   :     323194. kBytes
 
     INWAV:  cpu time      0.0001: real time      0.0007
 Broyden mixing: mesh for mixing (old mesh)
   NGX = 13   NGY = 37   NGZ = 45
  (NGX  = 56   NGY  =160   NGZ  =180)
  gives a total of  21645 points

 charge density for first step will be calculated from the start-wavefunctions


--------------------------------------------------------------------------------------------------------


 Maximum index for non-local projection operator          9284
 Maximum index for augmentation-charges         67789 (set IRDMAX)


--------------------------------------------------------------------------------------------------------


 initial charge from wavefunction
 First call to EWALD:  gamma=   0.237
 Maximum number of real-space cells 5x 2x 2
 Maximum number of reciprocal cells 2x 4x 4

    FEWALD:  cpu time      0.0022: real time      0.0022


--------------------------------------- Iteration      1(   1)  ---------------------------------------


    POTLOK:  cpu time      0.1752: real time      0.2127
    SETDIJ:  cpu time      3.9654: real time      3.9681
     EDDAV:  cpu time     10.2449: real time     10.2680
 BZINTS: Fermi energy:   30.958939;  252.000000 electrons
         Band energy:-0.350312E+04;  BLOECHL correction:   -0.536415
       DOS:  cpu time      0.1508: real time      0.1509
    --------------------------------------------
      LOOP:  cpu time     14.5363: real time     14.5997

 eigenvalue-minimisations  : 23592
 total energy-change (2. order) : 0.2997234E+04  (-0.1094558E+05)
 number of electron     252.0000001 magnetization       0.0000000
 augmentation part       29.9263043 magnetization       0.0131694

 Free energy of the ion-electron system (eV)
  ---------------------------------------------------
  alpha Z        PSCENC =      1944.51695937
  Ewald energy   TEWEN  =    -20650.18368424
  -Hartree energ DENC   =      -828.14241214
  -exchange      EXHF   =         0.00000000
  -V(xc)+E(xc)   XCENC  =       834.97842192
  PAW double counting   =    249102.57650437  -249675.65238522
  entropy T*S    EENTRO =         0.00000000
  eigenvalues    EBANDS =     -3503.12065777
  atomic energy  EATOM  =     25772.26093829
  Solvation  Ediel_sol  =         0.00000000
  ---------------------------------------------------
  free energy    TOTEN  =      2997.23368457 eV

  energy without entropy =     2997.23368457  energy(sigma->0) =     2997.23368457


--------------------------------------------------------------------------------------------------------




--------------------------------------- Iteration      1(   2)  ---------------------------------------


     EDDAV:  cpu time      8.1416: real time      8.1501
 BZINTS: Fermi energy:  -21.246119;  252.000000 electrons
         Band energy:-0.997229E+04;  BLOECHL correction:   -0.672106
       DOS:  cpu time      0.1392: real time      0.1394
    --------------------------------------------
      LOOP:  cpu time      8.2808: real time      8.2895

 eigenvalue-minimisations  : 18240
 total energy-change (2. order) :-0.6469173E+04  (-0.5740852E+04)
 number of electron     252.0000001 magnetization       0.0000000
 augmentation part       29.9263043 magnetization       0.0131694

 Free energy of the ion-electron system (eV)
  ---------------------------------------------------
  alpha Z        PSCENC =      1944.51695937
  Ewald energy   TEWEN  =    -20650.18368424
  -Hartree energ DENC   =      -828.14241214
  -exchange      EXHF   =         0.00000000
  -V(xc)+E(xc)   XCENC  =       834.97842192
  PAW double counting   =    249102.57650437  -249675.65238522
  entropy T*S    EENTRO =         0.00000000
  eigenvalues    EBANDS =     -9972.29408819
  atomic energy  EATOM  =     25772.26093829
  Solvation  Ediel_sol  =         0.00000000
  ---------------------------------------------------
  free energy    TOTEN  =     -3471.93974585 eV

  energy without entropy =    -3471.93974585  energy(sigma->0) =    -3471.93974585


--------------------------------------------------------------------------------------------------------




--------------------------------------- Iteration      1(   3)  ---------------------------------------


     EDDAV:  cpu time      7.8191: real time      7.8241
 BZINTS: Fermi energy:  -35.603035;  252.000000 electrons
         Band energy:-0.114270E+05;  BLOECHL correction:   -0.034731
       DOS:  cpu time      0.1274: real time      0.1275
    --------------------------------------------
      LOOP:  cpu time      7.9465: real time      7.9516

 eigenvalue-minimisations  : 17216
 total energy-change (2. order) :-0.1454705E+04  (-0.1388111E+04)
 number of electron     252.0000001 magnetization       0.0000000
 augmentation part       29.9263043 magnetization       0.0131694

 Free energy of the ion-electron system (eV)
  ---------------------------------------------------
  alpha Z        PSCENC =      1944.51695937
  Ewald energy   TEWEN  =    -20650.18368424
  -Hartree energ DENC   =      -828.14241214
  -exchange      EXHF   =         0.00000000
  -V(xc)+E(xc)   XCENC  =       834.97842192
  PAW double counting   =    249102.57650437  -249675.65238522
  entropy T*S    EENTRO =         0.00000000
  eigenvalues    EBANDS =    -11426.99905551
  atomic energy  EATOM  =     25772.26093829
  Solvation  Ediel_sol  =         0.00000000
  ---------------------------------------------------
  free energy    TOTEN  =     -4926.64471317 eV

  energy without entropy =    -4926.64471317  energy(sigma->0) =    -4926.64471317


--------------------------------------------------------------------------------------------------------




--------------------------------------- Iteration      1(   4)  ---------------------------------------


     EDDAV:  cpu time      7.8236: real time      7.8304
 BZINTS: Fermi energy:  -36.152074;  252.000000 electrons
         Band energy:-0.116128E+05;  BLOECHL correction:   -0.000073
       DOS:  cpu time      0.1122: real time      0.1123
    --------------------------------------------
      LOOP:  cpu time      7.9359: real time      7.9427

 eigenvalue-minimisations  : 17220
 total energy-change (2. order) :-0.1858354E+03  (-0.1782552E+03)
 number of electron     252.0000001 magnetization       0.0000000
 augmentation part       29.9263043 magnetization       0.0131694

 Free energy of the ion-electron system (eV)
  ---------------------------------------------------
  alpha Z        PSCENC =      1944.51695937
  Ewald energy   TEWEN  =    -20650.18368424
  -Hartree energ DENC   =      -828.14241214
  -exchange      EXHF   =         0.00000000
  -V(xc)+E(xc)   XCENC  =       834.97842192
  PAW double counting   =    249102.57650437  -249675.65238522
  entropy T*S    EENTRO =         0.00000000
  eigenvalues    EBANDS =    -11612.83445673
  atomic energy  EATOM  =     25772.26093829
  Solvation  Ediel_sol  =         0.00000000
  ---------------------------------------------------
  free energy    TOTEN  =     -5112.48011439 eV

  energy without entropy =    -5112.48011439  energy(sigma->0) =    -5112.48011439


--------------------------------------------------------------------------------------------------------




--------------------------------------- Iteration      1(   5)  ---------------------------------------


     EDDAV:  cpu time      9.7178: real time      9.7258
 BZINTS: Fermi energy:  -36.164700;  252.000000 electrons
         Band energy:-0.116341E+05;  BLOECHL correction:    0.000000
       DOS:  cpu time      0.0581: real time      0.0581
    CHARGE:  cpu time      0.4490: real time      0.4493
    MIXING:  cpu time      0.0036: real time      0.0036
    --------------------------------------------
      LOOP:  cpu time     10.2284: real time     10.2367

 eigenvalue-minimisations  : 22520
 total energy-change (2. order) :-0.2130906E+02  (-0.2125805E+02)
 number of electron     252.0000000 magnetization       1.3762324
 augmentation part       73.0564076 magnetization      -1.2635806

 Broyden mixing:
  rms(total) = 0.53096E+02    rms(broyden)= 0.53088E+02
  rms(prec ) = 0.59049E+02
  weight for this iteration     100.00

 Free energy of the ion-electron system (eV)
  ---------------------------------------------------
  alpha Z        PSCENC =      1944.51695937
  Ewald energy   TEWEN  =    -20650.18368424
  -Hartree energ DENC   =      -828.14241214
  -exchange      EXHF   =         0.00000000
  -V(xc)+E(xc)   XCENC  =       834.97842192
  PAW double counting   =    249102.57650437  -249675.65238522
  entropy T*S    EENTRO =         0.00000000
  eigenvalues    EBANDS =    -11634.14351178
  atomic energy  EATOM  =     25772.26093829
  Solvation  Ediel_sol  =         0.00000000
  ---------------------------------------------------
  free energy    TOTEN  =     -5133.78916944 eV

  energy without entropy =    -5133.78916944  energy(sigma->0) =    -5133.78916944


--------------------------------------------------------------------------------------------------------




--------------------------------------- Iteration      1(   6)  ---------------------------------------


    POTLOK:  cpu time      0.0104: real time      0.0115
    SETDIJ:  cpu time      3.9505: real time      3.9526
     EDDAV:  cpu time      8.9054: real time      8.9123
 BZINTS: Fermi energy:   -3.743058;  252.000000 electrons
         Band energy:-0.585723E+04;  BLOECHL correction:   -0.019707
       DOS:  cpu time      0.1221: real time      0.1222
    CHARGE:  cpu time      0.4493: real time      0.4495
    MIXING:  cpu time      0.0052: real time      0.0080
    --------------------------------------------
      LOOP:  cpu time     13.4429: real time     13.4561

 eigenvalue-minimisations  : 20240
 total energy-change (2. order) : 0.2436236E+04  (-0.2131252E+04)
 number of electron     252.0000001 magnetization       1.3763101
 augmentation part       44.6490316 magnetization       1.0948624

 Broyden mixing:
  rms(total) = 0.42457E+02    rms(broyden)= 0.42452E+02
  rms(prec ) = 0.49208E+02
  weight for this iteration     100.00

 eigenvalues of (default mixing * dielectric matrix)
  average eigenvalue GAMMA=   0.5989
  0.5989

 Free energy of the ion-electron system (eV)
  ---------------------------------------------------
  alpha Z        PSCENC =      1944.51695937
  Ewald energy   TEWEN  =    -20650.18368424
  -Hartree energ DENC   =     -3626.41013191
  -exchange      EXHF   =         0.00000000
  -V(xc)+E(xc)   XCENC  =      1013.87567039
  PAW double counting   =    126921.73969756  -128216.12216210
  entropy T*S    EENTRO =         0.00000000
  eigenvalues    EBANDS =     -5857.23032762
  atomic energy  EATOM  =     25772.26093829
  Solvation  Ediel_sol  =         0.00000000
  ---------------------------------------------------
  free energy    TOTEN  =     -2697.55304026 eV

  energy without entropy =    -2697.55304026  energy(sigma->0) =    -2697.55304026


--------------------------------------------------------------------------------------------------------




--------------------------------------- Iteration      1(   7)  ---------------------------------------


    POTLOK:  cpu time      0.0110: real time      0.0113
    SETDIJ:  cpu time      4.0145: real time      4.0211
     EDDAV:  cpu time      9.6559: real time      9.6726
 BZINTS: Fermi energy:   -1.435357;  252.000000 electrons
         Band energy:-0.469886E+04;  BLOECHL correction:   -0.048657
       DOS:  cpu time      0.1260: real time      0.1260
    CHARGE:  cpu time      0.4516: real time      0.4519
    MIXING:  cpu time      0.0042: real time      0.0042
    --------------------------------------------
      LOOP:  cpu time     14.2632: real time     14.2871

 eigenvalue-minimisations  : 21984
 total energy-change (2. order) : 0.1891251E+04  (-0.7900343E+03)
 number of electron     252.0000003 magnetization       0.9267232
 augmentation part       78.7377218 magnetization       2.7139664

 Broyden mixing:
  rms(total) = 0.38770E+02    rms(broyden)= 0.38768E+02
  rms(prec ) = 0.41603E+02
  weight for this iteration     100.00

 eigenvalues of (default mixing * dielectric matrix)
  average eigenvalue GAMMA=   0.4760
  0.6368  0.3152

 Free energy of the ion-electron system (eV)
  ---------------------------------------------------
  alpha Z        PSCENC =      1944.51695937
  Ewald energy   TEWEN  =    -20650.18368424
  -Hartree energ DENC   =     -3406.40518166
  -exchange      EXHF   =         0.00000000
  -V(xc)+E(xc)   XCENC  =      1011.32123036
  PAW double counting   =    123802.98971099  -124581.94288118
  entropy T*S    EENTRO =         0.00000000
  eigenvalues    EBANDS =     -4698.85873879
  atomic energy  EATOM  =     25772.26093829
  Solvation  Ediel_sol  =         0.00000000
  ---------------------------------------------------
  free energy    TOTEN  =      -806.30164686 eV

  energy without entropy =     -806.30164686  energy(sigma->0) =     -806.30164686


--------------------------------------------------------------------------------------------------------




--------------------------------------- Iteration      1(   8)  ---------------------------------------


    POTLOK:  cpu time      0.0106: real time      0.0114
    SETDIJ:  cpu time      3.9753: real time      3.9773
     EDDAV:  cpu time      8.7260: real time      8.7324
 BZINTS: Fermi energy:    4.312878;  252.000000 electrons
         Band energy:-0.368347E+04;  BLOECHL correction:   -0.017161
       DOS:  cpu time      0.1180: real time      0.1181
    CHARGE:  cpu time      0.4508: real time      0.4511
    MIXING:  cpu time      0.0044: real time      0.0044
    --------------------------------------------
      LOOP:  cpu time     13.2851: real time     13.2946

 eigenvalue-minimisations  : 19400
 total energy-change (2. order) : 0.2839860E+02  (-0.2555445E+03)
 number of electron     252.0000000 magnetization       1.0296498
 augmentation part       32.8608328 magnetization      -0.8031798

 Broyden mixing:
  rms(total) = 0.35862E+02    rms(broyden)= 0.35861E+02
  rms(prec ) = 0.38267E+02
  weight for this iteration     100.00

 eigenvalues of (default mixing * dielectric matrix)
  average eigenvalue GAMMA=   0.3307
  0.6089  0.3134  0.0697

 Free energy of the ion-electron system (eV)
  ---------------------------------------------------
  alpha Z        PSCENC =      1944.51695937
  Ewald energy   TEWEN  =    -20650.18368424
  -Hartree energ DENC   =     -4181.39242733
  -exchange      EXHF   =         0.00000000
  -V(xc)+E(xc)   XCENC  =      1046.97444864
  PAW double counting   =    100654.21407583  -101680.81858767
  entropy T*S    EENTRO =         0.00000000
  eigenvalues    EBANDS =     -3683.47477394
  atomic energy  EATOM  =     25772.26093829
  Solvation  Ediel_sol  =         0.00000000
  ---------------------------------------------------
  free energy    TOTEN  =      -777.90305106 eV

  energy without entropy =     -777.90305106  energy(sigma->0) =     -777.90305106


--------------------------------------------------------------------------------------------------------




--------------------------------------- Iteration      1(   9)  ---------------------------------------


    POTLOK:  cpu time      0.0109: real time      0.0118
    SETDIJ:  cpu time      3.9529: real time      3.9542
     EDDAV:  cpu time     10.4072: real time     10.4221
 BZINTS: Fermi energy:    5.511243;  252.000000 electrons
         Band energy:-0.361458E+04;  BLOECHL correction:   -0.048971
       DOS:  cpu time      0.1212: real time      0.1213
    CHARGE:  cpu time      0.4535: real time      0.4541
    MIXING:  cpu time      0.0053: real time      0.0054
    --------------------------------------------
      LOOP:  cpu time     14.9511: real time     14.9688

 eigenvalue-minimisations  : 24224
 total energy-change (2. order) : 0.2646404E+03  (-0.3356285E+02)
 number of electron     252.0000000 magnetization       0.7318451
 augmentation part       31.9173074 magnetization       0.0429845

 Broyden mixing:
  rms(total) = 0.34296E+02    rms(broyden)= 0.34296E+02
  rms(prec ) = 0.35929E+02
  weight for this iteration     100.00

 eigenvalues of (default mixing * dielectric matrix)
  average eigenvalue GAMMA=   0.3671
  0.2792  0.5817  0.3346  0.2728

 Free energy of the ion-electron system (eV)
  ---------------------------------------------------
  alpha Z        PSCENC =      1944.51695937
  Ewald energy   TEWEN  =    -20650.18368424
  -Hartree energ DENC   =     -4099.84611961
  -exchange      EXHF   =         0.00000000
  -V(xc)+E(xc)   XCENC  =      1045.39965722
  PAW double counting   =     94187.14956940   -95097.98049780
  entropy T*S    EENTRO =         0.00000000
  eigenvalues    EBANDS =     -3614.57942870
  atomic energy  EATOM  =     25772.26093829
  Solvation  Ediel_sol  =         0.00000000
  ---------------------------------------------------
  free energy    TOTEN  =      -513.26260608 eV

  energy without entropy =     -513.26260608  energy(sigma->0) =     -513.26260608


--------------------------------------------------------------------------------------------------------




--------------------------------------- Iteration      1(  10)  ---------------------------------------


    POTLOK:  cpu time      0.0108: real time      0.0117
    SETDIJ:  cpu time      3.9724: real time      3.9747
     EDDAV:  cpu time      9.6555: real time      9.6617
 BZINTS: Fermi energy:    1.928857;  252.000000 electrons
         Band energy:-0.361975E+04;  BLOECHL correction:   -0.001753
       DOS:  cpu time      0.1244: real time      0.1245
    CHARGE:  cpu time      0.4503: real time      0.4505
    MIXING:  cpu time      0.0056: real time      0.0056
    --------------------------------------------
      LOOP:  cpu time     14.2190: real time     14.2286

 eigenvalue-minimisations  : 22112
 total energy-change (2. order) : 0.8021026E+02  (-0.1105704E+02)
 number of electron     252.0000001 magnetization      -0.0619873
 augmentation part       51.7037054 magnetization       0.2960151

 Broyden mixing:
  rms(total) = 0.30654E+02    rms(broyden)= 0.30654E+02
  rms(prec ) = 0.31146E+02
  weight for this iteration     100.00

 eigenvalues of (default mixing * dielectric matrix)
  average eigenvalue GAMMA=   0.4998
  0.5555  0.5555  0.5255  0.5255  0.3369

 Free energy of the ion-electron system (eV)
  ---------------------------------------------------
  alpha Z        PSCENC =      1944.51695937
  Ewald energy   TEWEN  =    -20650.18368424
  -Hartree energ DENC   =     -4113.28632962
  -exchange      EXHF   =         0.00000000
  -V(xc)+E(xc)   XCENC  =      1047.64671509
  PAW double counting   =     84879.79692647   -85694.05221335
  entropy T*S    EENTRO =         0.00000000
  eigenvalues    EBANDS =     -3619.75165477
  atomic energy  EATOM  =     25772.26093829
  Solvation  Ediel_sol  =         0.00000000
  ---------------------------------------------------
  free energy    TOTEN  =      -433.05234277 eV

  energy without entropy =     -433.05234277  energy(sigma->0) =     -433.05234277


--------------------------------------------------------------------------------------------------------




--------------------------------------- Iteration      1(  11)  ---------------------------------------


    POTLOK:  cpu time      0.0104: real time      0.0116
    SETDIJ:  cpu time      3.9440: real time      3.9468
     EDDAV:  cpu time     10.1923: real time     10.2176
 BZINTS: Fermi energy:    3.240027;  252.000000 electrons
         Band energy:-0.338336E+04;  BLOECHL correction:   -0.016185
       DOS:  cpu time      0.1210: real time      0.1212
    CHARGE:  cpu time      0.4486: real time      0.4497
    MIXING:  cpu time      0.0050: real time      0.0050
    --------------------------------------------
      LOOP:  cpu time     14.7213: real time     14.7518

 eigenvalue-minimisations  : 23336
 total energy-change (2. order) :-0.4449957E+03  (-0.2011498E+03)
 number of electron     252.0000000 magnetization      -1.0463284
 augmentation part       30.4562352 magnetization      -3.9286405

 Broyden mixing:
  rms(total) = 0.28694E+02    rms(broyden)= 0.28694E+02
  rms(prec ) = 0.31712E+02
  weight for this iteration     100.00

 eigenvalues of (default mixing * dielectric matrix)
  average eigenvalue GAMMA=   0.7718
  1.3028  1.3028  0.7860  0.3493  0.4449  0.4449

 Free energy of the ion-electron system (eV)
  ---------------------------------------------------
  alpha Z        PSCENC =      1944.51695937
  Ewald energy   TEWEN  =    -20650.18368424
  -Hartree energ DENC   =     -4629.02397649
  -exchange      EXHF   =         0.00000000
  -V(xc)+E(xc)   XCENC  =      1069.01006577
  PAW double counting   =     81393.29200128   -82394.56045130
  entropy T*S    EENTRO =         0.00000000
  eigenvalues    EBANDS =     -3383.35989437
  atomic energy  EATOM  =     25772.26093829
  Solvation  Ediel_sol  =         0.00000000
  ---------------------------------------------------
  free energy    TOTEN  =      -878.04804170 eV

  energy without entropy =     -878.04804170  energy(sigma->0) =     -878.04804170


--------------------------------------------------------------------------------------------------------




--------------------------------------- Iteration      1(  12)  ---------------------------------------


    POTLOK:  cpu time      0.0104: real time      0.0114
    SETDIJ:  cpu time      3.9265: real time      3.9286
     EDDAV:  cpu time     10.3017: real time     10.3101
 BZINTS: Fermi energy:    5.651745;  252.000000 electrons
         Band energy:-0.249445E+04;  BLOECHL correction:   -0.021475
       DOS:  cpu time      0.1188: real time      0.1188
    CHARGE:  cpu time      0.4518: real time      0.4521
    MIXING:  cpu time      0.0049: real time      0.0049
    --------------------------------------------
      LOOP:  cpu time     14.8141: real time     14.8259

 eigenvalue-minimisations  : 23792
 total energy-change (2. order) : 0.1745861E+03  (-0.3568968E+02)
 number of electron     252.0000001 magnetization      -1.2756921
 augmentation part       25.9782508 magnetization      -4.1294913

 Broyden mixing:
  rms(total) = 0.13677E+02    rms(broyden)= 0.13677E+02
  rms(prec ) = 0.18968E+02
  weight for this iteration     100.00

 eigenvalues of (default mixing * dielectric matrix)
  average eigenvalue GAMMA=   0.7993
  1.5297  1.5297  0.6771  0.6771  0.3425  0.4194  0.4194

 Free energy of the ion-electron system (eV)
  ---------------------------------------------------
  alpha Z        PSCENC =      1944.51695937
  Ewald energy   TEWEN  =    -20650.18368424
  -Hartree energ DENC   =     -5712.57283028
  -exchange      EXHF   =         0.00000000
  -V(xc)+E(xc)   XCENC  =      1127.53095591
  PAW double counting   =     38067.59013648   -38758.15302572
  entropy T*S    EENTRO =         0.00000000
  eigenvalues    EBANDS =     -2494.45137207
  atomic energy  EATOM  =     25772.26093829
  Solvation  Ediel_sol  =         0.00000000
  ---------------------------------------------------
  free energy    TOTEN  =      -703.46192226 eV

  energy without entropy =     -703.46192226  energy(sigma->0) =     -703.46192226


--------------------------------------------------------------------------------------------------------




--------------------------------------- Iteration      1(  13)  ---------------------------------------


    POTLOK:  cpu time      0.0105: real time      0.0114
    SETDIJ:  cpu time      3.9267: real time      3.9279
     EDDAV:  cpu time     11.0060: real time     11.0144
 BZINTS: Fermi energy:    7.073425;  252.000000 electrons
         Band energy:-0.237828E+04;  BLOECHL correction:   -0.072583
       DOS:  cpu time      0.1282: real time      0.1283
    CHARGE:  cpu time      0.4502: real time      0.4504
    MIXING:  cpu time      0.0049: real time      0.0049
    --------------------------------------------
      LOOP:  cpu time     15.5265: real time     15.5374

 eigenvalue-minimisations  : 25776
 total energy-change (2. order) : 0.2764216E+03  (-0.9486963E+01)
 number of electron     252.0000001 magnetization      -1.9441618
 augmentation part       25.1782278 magnetization      -2.9006113

 Broyden mixing:
  rms(total) = 0.11235E+02    rms(broyden)= 0.11235E+02
  rms(prec ) = 0.15909E+02
  weight for this iteration     100.00

 eigenvalues of (default mixing * dielectric matrix)
  average eigenvalue GAMMA=   0.8328
  1.6759  1.6759  0.7622  0.7622  0.4389  0.4389  0.5615  0.3469

 Free energy of the ion-electron system (eV)
  ---------------------------------------------------
  alpha Z        PSCENC =      1944.51695937
  Ewald energy   TEWEN  =    -20650.18368424
  -Hartree energ DENC   =     -5682.34402741
  -exchange      EXHF   =         0.00000000
  -V(xc)+E(xc)   XCENC  =      1128.45429118
  PAW double counting   =     31632.15430419   -32193.61485805
  entropy T*S    EENTRO =         0.00000000
  eigenvalues    EBANDS =     -2378.28425892
  atomic energy  EATOM  =     25772.26093829
  Solvation  Ediel_sol  =         0.00000000
  ---------------------------------------------------
  free energy    TOTEN  =      -427.04033561 eV

  energy without entropy =     -427.04033561  energy(sigma->0) =     -427.04033561


--------------------------------------------------------------------------------------------------------




--------------------------------------- Iteration      1(  14)  ---------------------------------------


    POTLOK:  cpu time      0.0102: real time      0.0112
    SETDIJ:  cpu time      3.9429: real time      3.9444
     EDDAV:  cpu time     10.8146: real time     10.8216
 BZINTS: Fermi energy:    4.992882;  252.000000 electrons
         Band energy:-0.246789E+04;  BLOECHL correction:   -0.019794
       DOS:  cpu time      0.1243: real time      0.1243
    CHARGE:  cpu time      0.4525: real time      0.4527
    MIXING:  cpu time      0.0056: real time      0.0056
    --------------------------------------------
      LOOP:  cpu time     15.3499: real time     15.3597

 eigenvalue-minimisations  : 25224
 total energy-change (2. order) : 0.1557356E+03  (-0.2762511E+02)
 number of electron     252.0000001 magnetization      -2.1186611
 augmentation part       46.7990009 magnetization      -2.0012748

 Broyden mixing:
  rms(total) = 0.53307E+01    rms(broyden)= 0.53304E+01
  rms(prec ) = 0.55781E+01
  weight for this iteration     100.00

 eigenvalues of (default mixing * dielectric matrix)
  average eigenvalue GAMMA=   0.7814
  1.7051  1.7051  0.7360  0.7360  0.4408  0.4408  0.5416  0.3739  0.3531

 Free energy of the ion-electron system (eV)
  ---------------------------------------------------
  alpha Z        PSCENC =      1944.51695937
  Ewald energy   TEWEN  =    -20650.18368424
  -Hartree energ DENC   =     -5516.97120479
  -exchange      EXHF   =         0.00000000
  -V(xc)+E(xc)   XCENC  =      1122.64118366
  PAW double counting   =     29452.67102426   -29928.35266826
  entropy T*S    EENTRO =         0.00000000
  eigenvalues    EBANDS =     -2467.88730730
  atomic energy  EATOM  =     25772.26093829
  Solvation  Ediel_sol  =         0.00000000
  ---------------------------------------------------
  free energy    TOTEN  =      -271.30475902 eV

  energy without entropy =     -271.30475902  energy(sigma->0) =     -271.30475902


--------------------------------------------------------------------------------------------------------




--------------------------------------- Iteration      1(  15)  ---------------------------------------


    POTLOK:  cpu time      0.0109: real time      0.0113
    SETDIJ:  cpu time      3.9721: real time      3.9746
     EDDAV:  cpu time      9.8383: real time      9.8559
 BZINTS: Fermi energy:    4.648803;  252.000000 electrons
         Band energy:-0.245754E+04;  BLOECHL correction:   -0.004548
       DOS:  cpu time      0.1239: real time      0.1240
    CHARGE:  cpu time      0.4518: real time      0.4523
    MIXING:  cpu time      0.0052: real time      0.0052
    --------------------------------------------
      LOOP:  cpu time     14.4020: real time     14.4232

 eigenvalue-minimisations  : 22440
 total energy-change (2. order) : 0.1095357E+02  (-0.6409115E+01)
 number of electron     252.0000001 magnetization      -2.8077951
 augmentation part       46.7423461 magnetization      -2.1150335

 Broyden mixing:
  rms(total) = 0.48651E+01    rms(broyden)= 0.48651E+01
  rms(prec ) = 0.50675E+01
  weight for this iteration     100.00

 eigenvalues of (default mixing * dielectric matrix)
  average eigenvalue GAMMA=   0.7079
  1.7075  1.7075  0.7195  0.7195  0.4415  0.4415  0.5566  0.3446  0.2205  0.2205

 Free energy of the ion-electron system (eV)
  ---------------------------------------------------
  alpha Z        PSCENC =      1944.51695937
  Ewald energy   TEWEN  =    -20650.18368424
  -Hartree energ DENC   =     -5519.49220319
  -exchange      EXHF   =         0.00000000
  -V(xc)+E(xc)   XCENC  =      1122.62672899
  PAW double counting   =     29577.54269804   -30050.08710274
  entropy T*S    EENTRO =         0.00000000
  eigenvalues    EBANDS =     -2457.53552175
  atomic energy  EATOM  =     25772.26093829
  Solvation  Ediel_sol  =         0.00000000
  ---------------------------------------------------
  free energy    TOTEN  =      -260.35118724 eV

  energy without entropy =     -260.35118724  energy(sigma->0) =     -260.35118724


--------------------------------------------------------------------------------------------------------




--------------------------------------- Iteration      1(  16)  ---------------------------------------


    POTLOK:  cpu time      0.0103: real time      0.0113
    SETDIJ:  cpu time      3.9987: real time      4.0013
     EDDAV:  cpu time     10.2171: real time     10.2277
 BZINTS: Fermi energy:    4.346151;  252.000000 electrons
         Band energy:-0.247931E+04;  BLOECHL correction:   -0.000000
       DOS:  cpu time      0.0709: real time      0.0710
    CHARGE:  cpu time      0.4520: real time      0.4525
    MIXING:  cpu time      0.0056: real time      0.0056
    --------------------------------------------
      LOOP:  cpu time     14.7546: real time     14.7695

 eigenvalue-minimisations  : 23696
 total energy-change (2. order) : 0.2386571E+01  (-0.7858248E+00)
 number of electron     252.0000001 magnetization      -4.6173078
 augmentation part       47.1075530 magnetization      -3.7122854

 Broyden mixing:
  rms(total) = 0.47954E+01    rms(broyden)= 0.47953E+01
  rms(prec ) = 0.49852E+01
  weight for this iteration     100.00

 eigenvalues of (default mixing * dielectric matrix)
  average eigenvalue GAMMA=   0.7238
  1.7086  1.7086  0.7320  0.7320  0.5335  0.4806  0.3477  0.4404  0.4404  0.4189
  0.4189

 Free energy of the ion-electron system (eV)
  ---------------------------------------------------
  alpha Z        PSCENC =      1944.51695937
  Ewald energy   TEWEN  =    -20650.18368424
  -Hartree energ DENC   =     -5504.23754139
  -exchange      EXHF   =         0.00000000
  -V(xc)+E(xc)   XCENC  =      1122.41313538
  PAW double counting   =     29675.70732027   -30139.12734421
  entropy T*S    EENTRO =         0.00000000
  eigenvalues    EBANDS =     -2479.31440009
  atomic energy  EATOM  =     25772.26093829
  Solvation  Ediel_sol  =         0.00000000
  ---------------------------------------------------
  free energy    TOTEN  =      -257.96461662 eV

  energy without entropy =     -257.96461662  energy(sigma->0) =     -257.96461662


--------------------------------------------------------------------------------------------------------




--------------------------------------- Iteration      1(  17)  ---------------------------------------


    POTLOK:  cpu time      0.0105: real time      0.0114
    SETDIJ:  cpu time      4.0087: real time      4.0112
     EDDAV:  cpu time     10.6198: real time     10.6332
 BZINTS: Fermi energy:    3.808012;  252.000000 electrons
         Band energy:-0.249171E+04;  BLOECHL correction:    0.000000
       DOS:  cpu time      0.0679: real time      0.0679
    CHARGE:  cpu time      0.4506: real time      0.4510
    MIXING:  cpu time      0.0063: real time      0.0063
    --------------------------------------------
      LOOP:  cpu time     15.1638: real time     15.1811

 eigenvalue-minimisations  : 24624
[...]
  288          m_sumb_d                              0.000302                          2   4
  289        strnlr                                3.784258                            1   3
  290          rspher_all                            0.260385                          9   4
  291          phaser                                0.964921                        180   4
  292          rpro_isp                              2.550077                        180   4
  293            fftwav_mpi                            0.497006                    15480   5
  294              fftwav                                0.477949                  15480   6
  295                fft3d                                 0.104756                15480   7
  296            rpromu_acc                            1.191018                     3960   5
  297          m_sumb_d                              0.000015                          1   4
  298        fft3d_mpi                             0.004029                           22   3
  299          fftbrc_mpi                            0.003223                         22   4
  300            fftbas_plan_mpi                       0.003215                       22   5
  301              map_forward                           0.001164                     20   6
  302                map_gather                            0.000241                   10   7
  303                m_alltoallv_z                         0.000147                   10   7
  304                map_scatter                           0.000596                   10   7
  305              map_backward                          0.001359                     24   6
  306                map_gather                            0.000303                   12   7
  307                m_alltoallv_z                         0.000150                   12   7
  308                map_scatter                           0.000676                   12   7
  309        m_sumb_d                              0.000030                            5   3
  310        forhar                                0.002929                            2   3
  311          m_sumb_d                              0.000060                          2   4
  312        strehar                               0.002017                            1   3
  313          m_sumb_d                              0.000022                          1   4
  314        chggra                                0.000914                            1   3
  315          fft3d_mpi                             0.000549                          3   4
  316            fftbrc_mpi                            0.000430                        3   5
  317              fftbas_plan_mpi                       0.000428                      3   6
  318                map_forward                           0.000227                    4   7
  319                  map_gather                            0.000046                  2   8
  320                  m_alltoallv_z                         0.000032                  2   8
  321                  map_scatter                           0.000116                  2   8
  322                map_backward                          0.000109                    2   7
  323                  map_gather                            0.000025                  1   8
  324                  m_alltoallv_z                         0.000013                  1   8
  325                  map_scatter                           0.000051                  1   8
  326          m_sumb_d                              0.000010                          2   4
  327          pothar                                0.000091                          1   4
  328            m_sumb_d                              0.000010                        1   5
  329        brmix                                 0.011753                            1   3
  330          m_sumb_d                              0.000246                          6   4
  331          brpre                                 0.000035                          2   4
  332          setg0                                 0.001416                          1   4
  333          broyd                                 0.008454                          1   4
  334            m_sumb_d                              0.001189                       49   5
  335            brget                                 0.001631                      219   5
  336            brsav                                 0.000377                       47   5
  337        m_bcast_d                             0.000026                            2   3
  338      potlok                                0.048659                              2   2
  339        fft3d_mpi                             0.031247                           36   3
  340          fftbrc_mpi                            0.026199                         36   4
  341            fftbas_plan_mpi                       0.026175                       36   5
  342              map_forward                           0.007197                     40   6
  343                map_gather                            0.002273                   24   7
  344                m_alltoallv_z                         0.002608                   24   7
  345                map_scatter                           0.002110                   24   7
  346              map_backward                          0.006380                     32   6
  347                map_gather                            0.002144                   16   7
  348                m_alltoallv_z                         0.002146                   16   7
  349                map_scatter                           0.001853                   16   7
  350              dfftw_execute                         0.010806                     30   6
  351        m_sumb_d                              0.000030                            5   3
  352        pothar                                0.001962                            2   3
  353          m_sumb_d                              0.000022                          2   4
  354        m_bcast_d                             0.003415                            4   3
  355      potlok_metagga                        0.000000                              1   2
  356      set_dd_magatom                        0.000004                              1   2
  357      set_dd_paw                            3.715643                              1   2
  358        m_sumb_d                              0.000454                            7   3
  359      augmentation_charge                   0.246014                              1   2
  360        fft3d_mpi                             0.066843                            2   3
  361          fftbrc_mpi                            0.058453                          2   4
  362            fftbas_plan_mpi                       0.058450                        2   5
  363              dfftw_execute                         0.035453                      6   6
  364              map_backward                          0.022730                      4   6
  365                map_gather                            0.007692                    2   7
  366                m_alltoallv_z                         0.007165                    2   7
  367                map_scatter                           0.007862                    2   7
  368      fftwav_mpi                            7.664570                           5160   2
  369        fftwav                                7.657962                         5160   3
  370          fft3d                                 7.118081                       5160   4
  371      densta                                8.012721                              1   2
 
 Flat profile
 ============
 
             routine name                   CPU           calls
 ---------------------------------------------------------------
 set_dd_paw                            185.104057          50
 eddav                                 102.642289          52
 lapack                                 92.673687      190163
 raccmu_                                89.753904      190163
 redis_pw                               44.757801     1025556
 m_sumb_d                               42.227940      577950
 total_time                             19.653801           1
 m_alltoall_d                           19.234138     2689804
 fft3d                                  17.081605     1111196
 setdij_                                12.971208          76
 densta                                 12.873154          53
 phaser                                 12.201324        2340
 init_acc                               10.382559           1
 orth1                                   9.918423      570729
 eccp                                    9.704767       89440
 augmentation_charge                     8.914770          50
 redis_proj                              8.715400     1306408
 fftwav                                  7.683150      740944
 hamiltmu                                6.267878      190163
 rpromu_acc                              5.799666      150123
 racc0mu_acc                             5.595329      190163
 w1_copy                                 5.442676     1110756
 dfftw_execute                           5.436924        1644
 overl                                   5.416732      651104
 m_bcast_z                               4.809209      197043
 soft_charge                             3.438832          49
 setup_precond                           3.256582       89440
 m_bcast_d                               3.181802      380431
 ggemm                                   3.115978      235923
 overl_mu                                2.974696      190163
 acc_init_cublas                         2.447953           1
 pw_charge                               2.226063       62360
 vhamil                                  1.708064      370252
 kinhamil                                1.699002      370252
 fftext_mpi                              1.571428      370252
 apply_precond                           1.566675      280812
 newband                                 1.472038      192243
 m_alltoallv_z                           1.412987        2065
 depsum                                  1.368357          49
 rpro_isp                                1.201616         260
 fft3d_mpi                               1.150272      372099
 map_scatter                             1.139997        2065
 fftwav_mpi                              0.976332      740944
 map_gather                              0.935431        2065
 acc_init_cusolver                       0.794469           1
 set_charge                              0.594676          49
 sphpro_fast                             0.391630           2
 rspher_all                              0.386471          14
 potlok                                  0.272350          50
 elmin                                   0.164471           1
 w1_projall                              0.149863      144403
 acc_cufft_makeplan                      0.127169          19
 brmix                                   0.124997          48
 broyd                                   0.122051          48
 fftbas_plan_mpi                         0.120569        1847
 proall                                  0.107224           1
 lincom                                  0.082166        2120
 setg0                                   0.069607          50
 orthch                                  0.057992           1
 brget                                   0.044446        6108
 truncate_high_frequency_w1              0.034983      459692
 force_and_stress                        0.033354           1
 choleski                                0.025569          40
 stufak                                  0.019158           1
 map_backward                            0.012850        1934
 map_forward                             0.011065        1760
 brsav                                   0.010563        1479
 strnlr                                  0.008860           1
 pothar                                  0.006060          51
 fft_gq                                  0.005569          49
 inisym                                  0.004405           1
 fornlr                                  0.003684           1
 forhar                                  0.002869           2
 strelo                                  0.002788           1
 strkin                                  0.002429           1
 strehar                                 0.001995           1
 brpre                                   0.001794          96
 forloc                                  0.001495           1
 fftbrc_mpi                              0.001140        1847
 rsp                                     0.000944           1
 fewald                                  0.000343           1
 brgrid                                  0.000284           1
 chggra                                  0.000263           1
 set_dd_magatom                          0.000261          50
 vectorpot                               0.000220          49
 fordep                                  0.000143           1
 posmap                                  0.000065           2
 rcp                                     0.000030           1
 crpa_reader                             0.000026           1
 acc_cufft_makeplans                     0.000008           3
 rotate_active_occupied_orbital          0.000000           1
 redis_pw_over_bands                     0.000000           1
 potlok_metagga                          0.000000          49
 ---------------------------------------------------------------
  summed up times     785.9098649024963     
 
 Accumulative profile
 ====================
 
             routine name                   CPU           calls
 ---------------------------------------------------------------
 total_time                            785.909865           1
 elmin                                 711.723004           1
 eddav                                 494.609976          52
 set_dd_paw                            185.361072          50
 hamiltmu                              112.316184      190163
 raccmu_                                98.323928      190163
 lapack                                 92.673687      190163
 redis_pw                               54.231304     1025556
 m_sumb_d                               42.227940      577950
 set_charge                             23.970491          49
 fftwav_mpi                             23.107333      740944
 fftwav                                 22.131001      740944
 newband                                21.533979      192243
 m_alltoall_d                           19.234138     2689804
 setdij_                                18.861770          76
 redis_proj                             18.476036     1306408
 fft3d                                  17.081605     1111196
 force_and_stress                       15.767040           1
 densta                                 12.873154          53
 fft3d_mpi                              12.854989      372099
 augmentation_charge                    12.281816          50
 phaser                                 12.201324        2340
 init_acc                               10.382559           1
 orth1                                   9.918423      570729
 soft_charge                             9.848962          49
 eccp                                    9.704767       89440
 fftbrc_mpi                              9.070963        1847
 fftbas_plan_mpi                         9.069823        1847
 kinhamil                                6.016314      370252
 rpromu_acc                              5.799666      150123
 racc0mu_acc                             5.595329      190163
 w1_copy                                 5.442676     1110756
 dfftw_execute                           5.436924        1644
 overl                                   5.416732      651104
 m_bcast_z                               4.809209      197043
 w1_projall                              4.346361      144403
 fftext_mpi                              4.317312      370252
 strnlr                                  3.784258           1
 rpro_isp                                3.504952         260
 setup_precond                           3.256582       89440
 m_bcast_d                               3.181802      380431
 ggemm                                   3.115978      235923
 overl_mu                                2.974696      190163
 acc_init_cublas                         2.447953           1
 pw_charge                               2.226063       62360
 map_forward                             1.883927        1760
 vhamil                                  1.708064      370252
 map_backward                            1.628403        1934
 apply_precond                           1.566675      280812
 fordep                                  1.486408           1
 m_alltoallv_z                           1.412987        2065
 depsum                                  1.383829          49
 fornlr                                  1.256163           1
 map_scatter                             1.139997        2065
 map_gather                              0.935431        2065
 acc_init_cusolver                       0.794469           1
 potlok                                  0.734084          50
 orthch                                  0.566845           1
 sphpro_fast                             0.407861           2
 brmix                                   0.395556          48
 rspher_all                              0.386471          14
 proall                                  0.319461           1
 broyd                                   0.194574          48
 fft_gq                                  0.161734          49
 acc_cufft_makeplans                     0.127177           3
 acc_cufft_makeplan                      0.127169          19
 lincom                                  0.082166        2120
 setg0                                   0.069607          50
 brget                                   0.044446        6108
 truncate_high_frequency_w1              0.034983      459692
 choleski                                0.025569          40
 stufak                                  0.019158           1
 brsav                                   0.010563        1479
 pothar                                  0.006520          51
 inisym                                  0.004470           1
 strelo                                  0.003090           1
 forhar                                  0.002929           2
 strkin                                  0.002437           1
 fewald                                  0.002131           1
 strehar                                 0.002017           1
 forloc                                  0.001868           1
 brpre                                   0.001794          96
 rsp                                     0.000944           1
 chggra                                  0.000914           1
 brgrid                                  0.000284           1
 set_dd_magatom                          0.000261          50
 vectorpot                               0.000220          49
 posmap                                  0.000065           2
 rcp                                     0.000030           1
 crpa_reader                             0.000026           1
 rotate_active_occupied_orbital          0.000000           1
 redis_pw_over_bands                     0.000000           1
 potlok_metagga                          0.000000          49
 ---------------------------------------------------------------
 
Profiling took   2.345486  1.166089  0.003370  0.003231 seconds
Profiling took   1.527275 seconds
