 vasp.6.3.2 27Jun22 (build Jul  3 2023 11:46:21) complex                         
 executed on    LinuxNV_CrayMPICH date 2024.04.21  19:59:53
 running on    4 total cores
 distrk:  each k-point on    4 cores,    1 groups
 distr:  one band on NCORE=   1 cores,    4 groups


--------------------------------------------------------------------------------------------------------


 INCAR:
   ALGO = Fast
   EDIFF = 0.0014
   EFIELD_PEAD = 0.0 0.0 0.0
   ENCUT = 520.0
   IBRION = 2
   ICHARG = 1
   ISIF = 3
   ISMEAR = 0
   ISPIN = 2
   ISTART = 1
   LCALCEPS = False
   LCALCPOL = False
   LEFG = False
   LORBIT = 11
   LPEAD = False
   LREAL = Auto
   LWAVE = False
   MAGMOM = 4*7.0 24*0.6
   NELM = 1000
   NSW = 99
   PREC = accurate
   SIGMA = 0.2

 POTCAR:    PAW_PBE Eu 23Dec2003                  
 POTCAR:    PAW_PBE Rb_sv 06Sep2000               
 POTCAR:    PAW_PBE Si 05Jan2001                  
 POTCAR:    PAW_PBE S 06Sep2000                   
 POTCAR:    PAW_PBE Eu 23Dec2003                  
   SHA256 =  ed303d27e7c5191953f9b15539336e6f36d9037c1d2e92e80c13d733697cb93d Eu/POTCAR             
   COPYR  = (c) Copyright 23Dec2003 Georg Kresse                                                    
   COPYR  = This file is part of the software VASP. Any use, copying, and all other rights are regul
   COPYR  = If you do not have a valid VASP license, you may not use, copy or distribute this file. 
   VRHFIN =Eu : [core=Kr4d]                                                                         
   LEXCH  = PE                                                                                      
   EATOM  =  2619.8085 eV,  192.5505 Ry                                                             
                                                                                                    
   TITEL  = PAW_PBE Eu 23Dec2003                                                                    
   LULTRA =        F    use ultrasoft PP ?                                                          
   IUNSCR =        1    unscreen: 0-lin 1-nonlin 2-no                                               
   RPACOR =    2.300    partial core radius                                                         
   POMASS =  151.965; ZVAL   =   17.000    mass and valenz                                          
   RCORE  =    2.800    outmost cutoff radius                                                       
   RWIGS  =    2.800; RWIGS  =    1.482    wigner-seitz radius (au A)                               
   ENMAX  =  249.668; ENMIN  =  187.251 eV                                                          
   RCLOC  =    2.308    cutoff for local pot                                                        
   LCOR   =        T    correct aug charges                                                         
   LPAW   =        T    paw PP                                                                      
   EAUG   =  549.628                                                                                
   DEXC   =    0.000                                                                                
   RMAX   =    2.870    core radius for proj-oper                                                   
   RAUG   =    1.300    factor for augmentation sphere                                              
   RDEP   =    2.887    radius for radial grids                                                     
   RDEPT  =    2.221    core radius for aug-charge                                                  
                                                                                                    
   Atomic configuration                                                                             
   14 entries                                                                                       
     n  l   j            E        occ.                                                              
     1  0  0.50    -48354.7667   2.0000                                                             
     2  0  0.50     -7939.6472   2.0000                                                             
     2  1  1.50     -7072.6637   6.0000                                                             
     3  0  0.50     -1747.1875   2.0000                                                             
     3  1  1.50     -1477.5221   6.0000                                                             
     3  2  2.50     -1117.4686  10.0000                                                             
     4  0  0.50      -346.8682   2.0000                                                             
     4  1  1.50      -258.1962   6.0000                                                             
     4  2  2.50      -134.7724  10.0000                                                             
     5  0  0.50       -44.6510   2.0000                                                             
     6  0  0.50        -3.6227   2.0000                                                             
     5  1  1.50       -23.7639   6.0000                                                             
     5  2  2.50        -1.3130   0.0000                                                             
     4  3  2.50        -2.7310   7.0000                                                             
   Description                                                                                      
     l       E           TYP  RCUT    TYP  RCUT                                                     
     0    -44.6510453     23  2.400                                                                 
     0     -3.6226685     23  2.400                                                                 
     1    -23.7638687     23  2.400                                                                 
     1     27.2116520     23  2.400                                                                 
     2     -1.3129622     23  2.500                                                                 
     2     13.6058260     23  2.500                                                                 
     3     -2.7309948     23  2.800                                                                 
     3     -3.4014565     23  2.800                                                                 
  local pseudopotential read in
  partial core-charges read in
  partial kinetic energy density read in
  atomic valenz-charges read in
  non local Contribution for L=            0  read in
    real space projection operators read in
  non local Contribution for L=            0  read in
    real space projection operators read in
  non local Contribution for L=            1  read in
    real space projection operators read in
  non local Contribution for L=            1  read in
    real space projection operators read in
  non local Contribution for L=            2  read in
    real space projection operators read in
  non local Contribution for L=            2  read in
    real space projection operators read in
  non local Contribution for L=            3  read in
    real space projection operators read in
  non local Contribution for L=            3  read in
    real space projection operators read in
    PAW grid and wavefunctions read in
 
   number of l-projection  operators is LMAX  =            8
   number of lm-projection operators is LMMAX =           32
 
 POTCAR:    PAW_PBE Rb_sv 06Sep2000               
   SHA256 =  06c38fe1ec7709d96d3959f5f2c66fec330a93b52b042a8fb2dfe6a3a3fb06c1 Rb_sv/POTCAR          
   COPYR  = (c) Copyright 06Sep2000 Georg Kresse                                                    
   COPYR  = This file is part of the software VASP. Any use, copying, and all other rights are regul
   COPYR  = If you do not have a valid VASP license, you may not use, copy or distribute this file. 
   VRHFIN =Rb: 4s4p5s                                                                               
   LEXCH  = PE                                                                                      
   EATOM  =   662.5034 eV,   48.6926 Ry                                                             
                                                                                                    
   TITEL  = PAW_PBE Rb_sv 06Sep2000                                                                 
   LULTRA =        F    use ultrasoft PP ?                                                          
   IUNSCR =        1    unscreen: 0-lin 1-nonlin 2-no                                               
   RPACOR =    2.200    partial core radius                                                         
   POMASS =   85.468; ZVAL   =    9.000    mass and valenz                                          
   RCORE  =    2.500    outmost cutoff radius                                                       
   RWIGS  =    4.570; RWIGS  =    2.418    wigner-seitz radius (au A)                               
   ENMAX  =  220.112; ENMIN  =  165.084 eV                                                          
   RCLOC  =    2.200    cutoff for local pot                                                        
   LCOR   =        T    correct aug charges                                                         
   LPAW   =        T    paw PP                                                                      
   EAUG   =  423.861                                                                                
   DEXC   =    0.000                                                                                
   RMAX   =    2.546    core radius for proj-oper                                                   
   RAUG   =    1.300    factor for augmentation sphere                                              
   RDEP   =    2.541    radius for radial grids                                                     
   RDEPT  =    2.044    core radius for aug-charge                                                  
                                                                                                    
   Atomic configuration                                                                             
   10 entries                                                                                       
     n  l   j            E        occ.                                                              
     1  0  0.50    -15031.5419   2.0000                                                             
     2  0  0.50     -2007.8842   2.0000                                                             
     2  1  1.50     -1779.8144   6.0000                                                             
     3  0  0.50      -297.9619   2.0000                                                             
     3  1  1.50      -224.8335   6.0000                                                             
     3  2  2.50      -103.9539  10.0000                                                             
     4  0  0.50       -31.8932   2.0000                                                             
     5  0  0.50        -2.2327   0.9990                                                             
     4  1  1.50       -15.9645   6.0000                                                             
     4  2  1.50        -0.0020   0.0010                                                             
   Description                                                                                      
     l       E           TYP  RCUT    TYP  RCUT                                                     
     0    -31.8932387     23  2.500                                                                 
     0     -2.2326525     23  2.500                                                                 
     1    -15.9644597     23  2.500                                                                 
     1    -17.3250423     23  2.500                                                                 
     2     -0.0020100     23  2.500                                                                 
  local pseudopotential read in
  partial core-charges read in
  partial kinetic energy density read in
  atomic valenz-charges read in
  non local Contribution for L=            0  read in
    real space projection operators read in
  non local Contribution for L=            0  read in
    real space projection operators read in
  non local Contribution for L=            1  read in
    real space projection operators read in
  non local Contribution for L=            1  read in
    real space projection operators read in
  non local Contribution for L=            2  read in
    real space projection operators read in
    PAW grid and wavefunctions read in
 
   number of l-projection  operators is LMAX  =            5
   number of lm-projection operators is LMMAX =           13
 
 POTCAR:    PAW_PBE Si 05Jan2001                  
   SHA256 =  79d9987ad8750f624c4d6acb2a16d13abf6a777132adc04dc6c8399be72b42bb Si/POTCAR             
   COPYR  = (c) Copyright 05Jan2001 Georg Kresse                                                    
   COPYR  = This file is part of the software VASP. Any use, copying, and all other rights are regul
   COPYR  = If you do not have a valid VASP license, you may not use, copy or distribute this file. 
   VRHFIN =Si: s2p2                                                                                 
   LEXCH  = PE                                                                                      
   EATOM  =   103.0669 eV,    7.5752 Ry                                                             
                                                                                                    
   TITEL  = PAW_PBE Si 05Jan2001                                                                    
   LULTRA =        F    use ultrasoft PP ?                                                          
   IUNSCR =        1    unscreen: 0-lin 1-nonlin 2-no                                               
   RPACOR =    1.500    partial core radius                                                         
   POMASS =   28.085; ZVAL   =    4.000    mass and valenz                                          
   RCORE  =    1.900    outmost cutoff radius                                                       
   RWIGS  =    2.480; RWIGS  =    1.312    wigner-seitz radius (au A)                               
   ENMAX  =  245.345; ENMIN  =  184.009 eV                                                          
   ICORE  =        2    local potential                                                             
   LCOR   =        T    correct aug charges                                                         
   LPAW   =        T    paw PP                                                                      
   EAUG   =  322.069                                                                                
   DEXC   =    0.000                                                                                
   RMAX   =    1.950    core radius for proj-oper                                                   
   RAUG   =    1.300    factor for augmentation sphere                                              
   RDEP   =    1.993    radius for radial grids                                                     
   RDEPT  =    1.837    core radius for aug-charge                                                  
                                                                                                    
   Atomic configuration                                                                             
    6 entries                                                                                       
     n  l   j            E        occ.                                                              
     1  0  0.50     -1785.8828   2.0000                                                             
     2  0  0.50      -139.4969   2.0000                                                             
     2  1  1.50       -95.5546   6.0000                                                             
     3  0  0.50       -10.8127   2.0000                                                             
     3  1  0.50        -4.0811   2.0000                                                             
     3  2  1.50        -4.0817   0.0000                                                             
   Description                                                                                      
     l       E           TYP  RCUT    TYP  RCUT                                                     
     0    -10.8127223     23  1.900                                                                 
     0     -7.6451159     23  1.900                                                                 
     1     -4.0811372     23  1.900                                                                 
     1      2.4879257     23  1.900                                                                 
     2     -4.0817478      7  1.900                                                                 
  local pseudopotential read in
  partial core-charges read in
  partial kinetic energy density read in
  atomic valenz-charges read in
  non local Contribution for L=            0  read in
    real space projection operators read in
  non local Contribution for L=            0  read in
    real space projection operators read in
  non local Contribution for L=            1  read in
    real space projection operators read in
  non local Contribution for L=            1  read in
    real space projection operators read in
    PAW grid and wavefunctions read in
 
   number of l-projection  operators is LMAX  =            4
   number of lm-projection operators is LMMAX =            8
 
 POTCAR:    PAW_PBE S 06Sep2000                   
   SHA256 =  0fc7481fb0695f01bdc6462160264c5c84044ae9ec85a907d398b887a2bc3132 S/POTCAR              
   COPYR  = (c) Copyright 06Sep2000 Georg Kresse                                                    
   COPYR  = This file is part of the software VASP. Any use, copying, and all other rights are regul
   COPYR  = If you do not have a valid VASP license, you may not use, copy or distribute this file. 
   VRHFIN =S : s2p4                                                                                 
   LEXCH  = PE                                                                                      
   EATOM  =   276.8230 eV,   20.3459 Ry                                                             
                                                                                                    
   TITEL  = PAW_PBE S 06Sep2000                                                                     
   LULTRA =        F    use ultrasoft PP ?                                                          
   IUNSCR =        1    unscreen: 0-lin 1-nonlin 2-no                                               
   RPACOR =    1.500    partial core radius                                                         
   POMASS =   32.066; ZVAL   =    6.000    mass and valenz                                          
   RCORE  =    1.900    outmost cutoff radius                                                       
   RWIGS  =    2.200; RWIGS  =    1.164    wigner-seitz radius (au A)                               
   ENMAX  =  258.689; ENMIN  =  194.016 eV                                                          
   ICORE  =        2    local potential                                                             
   LCOR   =        T    correct aug charges                                                         
   LPAW   =        T    paw PP                                                                      
   EAUG   =  335.092                                                                                
   DEXC   =    0.000                                                                                
   RMAX   =    1.942    core radius for proj-oper                                                   
   RAUG   =    1.300    factor for augmentation sphere                                              
   RDEP   =    1.954    radius for radial grids                                                     
   RDEPT  =    1.744    core radius for aug-charge                                                  
                                                                                                    
   Atomic configuration                                                                             
    6 entries                                                                                       
     n  l   j            E        occ.                                                              
     1  0  0.50     -2405.8406   2.0000                                                             
     2  0  0.50      -211.7007   2.0000                                                             
     2  1  1.50      -156.4958   6.0000                                                             
     3  0  0.50       -17.2562   2.0000                                                             
     3  1  0.50        -7.0085   4.0000                                                             
     3  2  1.50        -6.8029   0.0000                                                             
   Description                                                                                      
     l       E           TYP  RCUT    TYP  RCUT                                                     
     0    -17.2561641     23  1.900                                                                 
     0    -15.8743224     23  1.900                                                                 
     1     -7.0085400     23  1.900                                                                 
     1     -2.7779785     23  1.900                                                                 
     2     -6.8029130     23  1.900                                                                 
  local pseudopotential read in
  partial core-charges read in
  partial kinetic energy density read in
  atomic valenz-charges read in
  non local Contribution for L=            0  read in
    real space projection operators read in
  non local Contribution for L=            0  read in
    real space projection operators read in
  non local Contribution for L=            1  read in
    real space projection operators read in
  non local Contribution for L=            1  read in
    real space projection operators read in
    PAW grid and wavefunctions read in
 
   number of l-projection  operators is LMAX  =            4
   number of lm-projection operators is LMMAX =            8
 
 Optimization of the real space projectors (new method)

 maximal supplied QI-value         = 13.42
 optimisation between [QCUT,QGAM] = [ 11.67, 23.35] = [ 38.16,152.62] Ry 
 Optimized for a Real-space Cutoff    1.63 Angstroem

   l    n(q)    QCUT    max X(q) W(low)/X(q) W(high)/X(q)  e(spline) 
   0     11    11.673    10.400    0.14E-04    0.18E-05    0.24E-07
   0     11    11.673    10.768    0.21E-04    0.32E-05    0.49E-07
   1     11    11.673     4.094    0.40E-05    0.13E-04    0.93E-07
   1     11    11.673     4.009    0.11E-04    0.46E-04    0.33E-06
   2     10    11.673    29.030    0.79E-04    0.60E-04    0.70E-06
   2     10    11.673    19.941    0.80E-04    0.60E-04    0.71E-06
   3     10    11.673    88.889    0.23E-03    0.29E-03    0.30E-06
   3     10    11.673    76.102    0.23E-03    0.30E-03    0.30E-06
 Optimization of the real space projectors (new method)

 maximal supplied QI-value         = 15.12
 optimisation between [QCUT,QGAM] = [ 11.64, 23.28] = [ 37.95,151.78] Ry 
 Optimized for a Real-space Cutoff    1.63 Angstroem

   l    n(q)    QCUT    max X(q) W(low)/X(q) W(high)/X(q)  e(spline) 
   0     11    11.641    11.905    0.26E-04    0.31E-05    0.88E-07
   0     11    11.641    15.029    0.40E-04    0.49E-05    0.17E-06
   1     11    11.641   129.694    0.10E-03    0.47E-04    0.47E-06
   1     11    11.641   129.780    0.10E-03    0.47E-04    0.47E-06
   2     10    11.641    17.083    0.83E-05    0.11E-04    0.75E-07
 Optimization of the real space projectors (new method)

 maximal supplied QI-value         = 19.84
 optimisation between [QCUT,QGAM] = [ 11.51, 23.22] = [ 37.09,150.92] Ry 
 Optimized for a Real-space Cutoff    1.21 Angstroem

   l    n(q)    QCUT    max X(q) W(low)/X(q) W(high)/X(q)  e(spline) 
   0      8    11.508   159.560    0.71E-04    0.15E-03    0.51E-07
   0      8    11.508   115.863    0.70E-04    0.15E-03    0.51E-07
   1      8    11.508    88.339    0.16E-03    0.38E-04    0.82E-07
   1      8    11.508    48.592    0.15E-03    0.36E-04    0.79E-07
 Optimization of the real space projectors (new method)

 maximal supplied QI-value         = 19.84
 optimisation between [QCUT,QGAM] = [ 11.51, 23.22] = [ 37.09,150.92] Ry 
 Optimized for a Real-space Cutoff    1.21 Angstroem

   l    n(q)    QCUT    max X(q) W(low)/X(q) W(high)/X(q)  e(spline) 
   0      8    11.508   187.594    0.96E-04    0.18E-03    0.54E-07
   0      8    11.508   164.243    0.96E-04    0.18E-03    0.54E-07
   1      8    11.508    67.533    0.18E-03    0.65E-04    0.94E-07
   1      8    11.508    50.729    0.18E-03    0.63E-04    0.92E-07
  PAW_PBE Eu 23Dec2003                  :
 energy of atom  1       EATOM=-2619.8085
 kinetic energy error for atom=    0.0015 (will be added to EATOM!!)
  PAW_PBE Rb_sv 06Sep2000               :
 energy of atom  2       EATOM= -662.5034
 kinetic energy error for atom=    0.0006 (will be added to EATOM!!)
  PAW_PBE Si 05Jan2001                  :
 energy of atom  3       EATOM= -103.0669
 kinetic energy error for atom=    0.0005 (will be added to EATOM!!)
  PAW_PBE S 06Sep2000                   :
 energy of atom  4       EATOM= -276.8230
 kinetic energy error for atom=    0.0016 (will be added to EATOM!!)
 
 
 POSCAR: Rb4 Eu4 Si4 S16
  positions in direct lattice
  No initial velocities read in
 exchange correlation table for  LEXCH =        8
   RHO(1)=    0.500       N(1)  =     2000
   RHO(2)=  100.500       N(2)  =     4000

 VTST: version 4.2, (08/11/21)

 CHAIN: initializing optimizer
 
 OPT: Using VASP Conjugate-Gradient optimizer
 CHAIN: Read ICHAIN             0
 
 POSCAR: Rb4 Eu4 Si4 S16
  positions in direct lattice
  No initial velocities read in
 


--------------------------------------------------------------------------------------------------------


 ion  position               nearest neighbor table
   1  0.709  0.520  0.774-  19 2.89  23 2.90  20 2.92  25 2.94  14 2.95  18 2.99  22 3.08   8 4.58

   2  0.791  0.480  0.274-  16 2.89  15 2.90  26 2.92  13 2.94  17 2.95  21 2.99  24 3.08   6 4.58

   3  0.291  0.020  0.726-  22 2.89  28 2.90  14 2.92  18 2.94  20 2.95  25 2.99  19 3.08   5 4.58

   4  0.209  0.980  0.226-  24 2.89  27 2.90  17 2.92  21 2.94  26 2.95  13 2.99  16 3.08   7 4.58

   5  0.015  0.995  0.967-  22 3.40  23 3.50  13 3.52  23 3.56  27 3.57  20 3.60  17 3.63  18 3.71
                            10 3.95  11 4.22  27 4.25  11 4.30   3 4.58   6 4.80   6 4.80   6 4.89
   6  0.515  0.505  0.033-  16 3.40  27 3.50  18 3.52  27 3.56  23 3.57  17 3.60  20 3.63  13 3.71
                            11 3.95  10 4.22  23 4.25  10 4.30   2 4.58   5 4.80   5 4.80   5 4.89
   7  0.485  0.005  0.467-  24 3.40  15 3.50  25 3.52  15 3.56  28 3.57  26 3.60  14 3.63  21 3.71
                             9 3.95  12 4.22  28 4.25  12 4.30   4 4.58   8 4.80   8 4.80   8 4.89
   8  0.985  0.495  0.533-  19 3.40  28 3.50  21 3.52  28 3.56  15 3.57  14 3.60  26 3.63  25 3.71
                            12 3.95   9 4.22  15 4.25   9 4.30   1 4.58   7 4.80   7 4.80   7 4.89
   9  0.790  0.988  0.663-  28 2.12  22 2.15  14 2.15  25 2.15   7 3.95   8 4.22   8 4.30
  10  0.710  0.012  0.163-  27 2.12  24 2.15  17 2.15  13 2.15   5 3.95   6 4.22   6 4.30
  11  0.210  0.488  0.837-  23 2.12  19 2.15  20 2.15  18 2.15   6 3.95   5 4.22   5 4.30
  12  0.290  0.512  0.337-  15 2.12  16 2.15  26 2.15  21 2.15   8 3.95   7 4.22   7 4.30
  13  0.925  0.247  0.140-  10 2.15   2 2.94   4 2.99   5 3.52   6 3.71
  14  0.606  0.248  0.647-   9 2.15   3 2.92   1 2.95   8 3.60   7 3.63
  15  0.546  0.509  0.412-  12 2.12   2 2.90   7 3.50   7 3.56   8 3.57   8 4.25
  16  0.383  0.556  0.220-  12 2.15   2 2.89   4 3.08   6 3.40
  17  0.894  0.752  0.147-  10 2.15   4 2.92   2 2.95   6 3.60   5 3.63
  18  0.425  0.253  0.860-  11 2.15   3 2.94   1 2.99   6 3.52   5 3.71
  19  0.117  0.444  0.720-  11 2.15   1 2.89   3 3.08   8 3.40
  20  0.394  0.748  0.853-  11 2.15   1 2.92   3 2.95   5 3.60   6 3.63
  21  0.075  0.747  0.360-  12 2.15   4 2.94   2 2.99   8 3.52   7 3.71
  22  0.883  0.944  0.780-   9 2.15   3 2.89   1 3.08   5 3.40
  23  0.954  0.491  0.912-  11 2.12   1 2.90   5 3.50   5 3.56   6 3.57   6 4.25
  24  0.617  0.056  0.280-  10 2.15   4 2.89   2 3.08   7 3.40
  25  0.575  0.753  0.640-   9 2.15   1 2.94   3 2.99   7 3.52   8 3.71
  26  0.106  0.252  0.353-  12 2.15   2 2.92   4 2.95   7 3.60   8 3.63
  27  0.454  0.009  0.088-  10 2.12   4 2.90   6 3.50   6 3.56   5 3.57   5 4.25
  28  0.046  0.991  0.588-   9 2.12   3 2.90   8 3.50   8 3.56   7 3.57   7 4.25
 
  LATTYP: Found a simple orthorhombic cell.
 ALAT       =     6.5627738800
 B/A-ratio  =     1.0279385277
 C/A-ratio  =     2.6576628601
  
  Lattice vectors:
  
 A1 = (   6.5627738800,   0.0000000000,   0.0000000000)
 A2 = (   0.0000000000,   6.7461281200,   0.0000000000)
 A3 = (   0.0000000000,   0.0000000000,  17.4416404000)


Analysis of symmetry for initial positions (statically):
=====================================================================
 Subroutine PRICEL returns:
 Original cell was already a primitive cell.
 

 Routine SETGRP: Setting up the symmetry group for a 
 simple orthorhombic supercell.


 Subroutine GETGRP returns: Found  4 space group operations
 (whereof  1 operations were pure point group operations)
 out of a pool of  8 trial point group operations.


The static configuration has the point symmetry C_1 .
 The point group associated with its full space group is D_2 .


Analysis of symmetry for dynamics (positions and initial velocities):
=====================================================================
 Subroutine PRICEL returns:
 Original cell was already a primitive cell.
 

 Routine SETGRP: Setting up the symmetry group for a 
 simple orthorhombic supercell.


 Subroutine GETGRP returns: Found  4 space group operations
 (whereof  1 operations were pure point group operations)
 out of a pool of  8 trial point group operations.


The dynamic configuration has the point symmetry C_1 .
 The point group associated with its full space group is D_2 .


Analysis of structural, dynamic, and magnetic symmetry:
=====================================================================
 Subroutine PRICEL returns:
 Original cell was already a primitive cell.
 

 Routine SETGRP: Setting up the symmetry group for a 
 simple orthorhombic supercell.


 Subroutine GETGRP returns: Found  4 space group operations
 (whereof  1 operations were pure point group operations)
 out of a pool of  8 trial point group operations.


The overall configuration has the point symmetry C_1 .
 The point group associated with its full space group is D_2 .


 Subroutine INISYM returns: Found  4 space group operations
 (whereof  1 operations are pure point group operations),
 and found     1 'primitive' translations


----------------------------------------------------------------------------------------

                                     Primitive cell                                     

  volume of cell :     772.1992

  direct lattice vectors                    reciprocal lattice vectors
     6.562773880  0.000000000  0.000000000     0.152374593  0.000000000  0.000000000
     0.000000000  6.746128120  0.000000000     0.000000000  0.148233176  0.000000000
     0.000000000  0.000000000 17.441640400     0.000000000  0.000000000  0.057334057

  length of vectors
     6.562773880  6.746128120 17.441640400     0.152374593  0.148233176  0.057334057

  position of ions in fractional coordinates (direct lattice)
     0.708766700  0.519861990  0.773842030
     0.791233300  0.480138010  0.273842030
     0.291233300  0.019861990  0.726157970
     0.208766700  0.980138010  0.226157970
     0.015006560  0.995320510  0.967128260
     0.515006560  0.504679490  0.032871740
     0.484993440  0.004679490  0.467128260
     0.984993440  0.495320510  0.532871740
     0.789860470  0.988080780  0.662614260
     0.710139530  0.011919220  0.162614260
     0.210139530  0.488080780  0.837385740
     0.289860470  0.511919220  0.337385740
     0.924571680  0.246672060  0.140403050
     0.605594520  0.248492550  0.647113500
     0.546085890  0.508967450  0.411694230
     0.382534420  0.555770490  0.220388100
     0.894405480  0.751507450  0.147113500
     0.424571680  0.253327940  0.859596950
     0.117465580  0.444229510  0.720388100
     0.394405480  0.748492550  0.852886500
     0.075428320  0.746672060  0.359596950
     0.882534420  0.944229510  0.779611900
     0.953914110  0.491032550  0.911694230
     0.617465580  0.055770490  0.279611900
     0.575428320  0.753327940  0.640403050
     0.105594520  0.251507450  0.352886500
     0.453914110  0.008967450  0.088305770
     0.046085890  0.991032550  0.588305770

  ion indices of the primitive-cell ions
   primitive index   ion index
                 1           1
                 2           2
                 3           3
                 4           4
                 5           5
                 6           6
                 7           7
                 8           8
                 9           9
                10          10
                11          11
                12          12
                13          13
                14          14
                15          15
                16          16
                17          17
                18          18
                19          19
                20          20
                21          21
                22          22
                23          23
                24          24
                25          25
                26          26
                27          27
                28          28

----------------------------------------------------------------------------------------

 
 
 KPOINTS: Kpoints from vasprun.xml                

Automatic generation of k-mesh.
 Grid dimensions read from file:
 generate k-points for:    5    4    2

 Generating k-lattice:

  Cartesian coordinates                     Fractional coordinates (reciprocal lattice)
     0.030474919  0.000000000  0.000000000     0.200000000  0.000000000  0.000000000
     0.000000000  0.037058294  0.000000000     0.000000000  0.250000000  0.000000000
     0.000000000  0.000000000  0.028667028     0.000000000  0.000000000  0.500000000

  Length of vectors
     0.030474919  0.037058294  0.028667028

  Shift w.r.t. Gamma in fractional coordinates (k-lattice)
     0.000000000  0.500000000  0.500000000

 
 Subroutine IBZKPT returns following result:
 ===========================================
 
 Found      6 irreducible k-points:
 
 Following reciprocal coordinates:
            Coordinates               Weight
  0.000000  0.125000  0.250000      4.000000
  0.200000  0.125000  0.250000      8.000000
  0.400000  0.125000  0.250000      8.000000
  0.000000  0.375000  0.250000      4.000000
  0.200000  0.375000  0.250000      8.000000
  0.400000  0.375000  0.250000      8.000000
 
 Following cartesian coordinates:
            Coordinates               Weight
  0.000000  0.018529  0.014334      4.000000
  0.030475  0.018529  0.014334      8.000000
  0.060950  0.018529  0.014334      8.000000
  0.000000  0.055587  0.014334      4.000000
  0.030475  0.055587  0.014334      8.000000
  0.060950  0.055587  0.014334      8.000000
 


--------------------------------------------------------------------------------------------------------




 Dimension of arrays:
   k-points           NKPTS =      6   k-points in BZ     NKDIM =      6   number of bands    NBANDS=    152
   number of dos      NEDOS =    301   number of ions     NIONS =     28
   non local maximal  LDIM  =      8   non local SUM 2l+1 LMDIM =     32
   total plane-waves  NPLWV = 350000
   max r-space proj   IRMAX =   8230   max aug-charges    IRDMAX=  26108
   dimension x,y,z NGX =    50 NGY =   50 NGZ =  140
   dimension x,y,z NGXF=   100 NGYF=  100 NGZF=  280
   support grid    NGXF=   100 NGYF=  100 NGZF=  280
   ions per type =               4   4   4  16
   NGX,Y,Z   is equivalent  to a cutoff of  12.67, 12.32, 13.34 a.u.
   NGXF,Y,Z  is equivalent  to a cutoff of  25.33, 24.64, 26.69 a.u.

 SYSTEM =  unknown system                          
 POSCAR =  Rb4 Eu4 Si4 S16                         

 Startparameter for this run:
   NWRITE =      2    write-flag & timer
   PREC   = accura    normal or accurate (medium, high low for compatibility)
   ISTART =      0    job   : 0-new  1-cont  2-samecut
   ICHARG =      1    charge: 1-file 2-atom 10-const
   ISPIN  =      2    spin polarized calculation?
   LNONCOLLINEAR =      F non collinear calculations
   LSORBIT =      F    spin-orbit coupling
   INIWAV =      1    electr: 0-lowe 1-rand  2-diag
   LASPH  =      F    aspherical Exc in radial PAW
 Electronic Relaxation 1
   ENCUT  =  520.0 eV  38.22 Ry    6.18 a.u.  12.20 12.54 32.43*2*pi/ulx,y,z
   ENINI  =  520.0     initial cutoff
   ENAUG  =  549.6 eV  augmentation charge cutoff
   NELM   =   1000;   NELMIN=  2; NELMDL=  0     # of ELM steps 
   EDIFF  = 0.1E-02   stopping-criterion for ELM
   LREAL  =      T    real-space projection
   NLSPLINE    = F    spline interpolate recip. space projectors
   LCOMPAT=      F    compatible to vasp.4.4
   GGA_COMPAT  = T    GGA compatible to vasp.4.4-vasp.4.6
   LMAXPAW     = -100 max onsite density
   LMAXMIX     =    2 max onsite mixed and CHGCAR
   VOSKOWN=      0    Vosko Wilk Nusair interpolation
   ROPT   =   -0.00025  -0.00025  -0.00025  -0.00025
 Ionic relaxation
   EDIFFG = 0.1E-01   stopping-criterion for IOM
   NSW    =     99    number of steps for IOM
   NBLOCK =      1;   KBLOCK =     99    inner block; outer block 
   IBRION =      2    ionic relax: 0-MD 1-quasi-New 2-CG
   NFREE  =      1    steps in history (QN), initial steepest desc. (CG)
   ISIF   =      3    stress and relaxation
   IWAVPR =     11    prediction:  0-non 1-charg 2-wave 3-comb
   ISYM   =      2    0-nonsym 1-usesym 2-fastsym
   LCORR  =      T    Harris-Foulkes like correction to forces

   POTIM  = 0.5000    time-step for ionic-motion
   TEIN   =    0.0    initial temperature
   TEBEG  =    0.0;   TEEND  =   0.0 temperature during run
   SMASS  =  -3.00    Nose mass-parameter (am)
   estimated Nose-frequenzy (Omega)   =  0.10E-29 period in steps = 0.13E+47 mass=  -0.984E-27a.u.
   SCALEE = 1.0000    scale energy and forces
   NPACO  =    256;   APACO  = 10.0  distance and # of slots for P.C.
   PSTRESS=    0.0 pullay stress

  Mass of Ions in am
   POMASS = 151.97 85.47 28.09 32.07
  Ionic Valenz
   ZVAL   =  17.00  9.00  4.00  6.00
  Atomic Wigner-Seitz radii
   RWIGS  =  -1.00 -1.00 -1.00 -1.00
  virtual crystal weights 
   VCA    =   1.00  1.00  1.00  1.00
   NELECT =     216.0000    total number of electrons
   NUPDOWN=      -1.0000    fix difference up-down

 DOS related values:
   EMIN   =  10.00;   EMAX   =-10.00  energy-range for DOS
   EFERMI =   0.00
   ISMEAR =     0;   SIGMA  =   0.20  broadening in eV -4-tet -1-fermi 0-gaus

 Electronic relaxation 2 (details)
   IALGO  =     68    algorithm
   LDIAG  =      T    sub-space diagonalisation (order eigenvalues)
   LSUBROT=      F    optimize rotation matrix (better conditioning)
   TURBO    =      0    0=normal 1=particle mesh
   IRESTART =      0    0=no restart 2=restart with 2 vectors
   NREBOOT  =      0    no. of reboots
   NMIN     =      0    reboot dimension
   EREF     =   0.00    reference energy to select bands
   IMIX   =      4    mixing-type and parameters
     AMIX     =   0.40;   BMIX     =  1.00
     AMIX_MAG =   1.60;   BMIX_MAG =  1.00
     AMIN     =   0.10
     WC   =   100.;   INIMIX=   1;  MIXPRE=   1;  MAXMIX= -45

 Intra band minimization:
   WEIMIN = 0.0010     energy-eigenvalue tresh-hold
   EBREAK =  0.23E-05  absolut break condition
   DEPER  =   0.30     relativ break condition  

   TIME   =   0.40     timestep for ELM

  volume/ion in A,a.u.               =      27.58       186.11
  Fermi-wavevector in a.u.,A,eV,Ry     =   1.070655  2.023245 15.596393  1.146303
  Thomas-Fermi vector in A             =   2.206372
 
 Write flags
   LWAVE        =      F    write WAVECAR
   LDOWNSAMPLE  =      F    k-point downsampling of WAVECAR
   LCHARG       =      T    write CHGCAR
   LVTOT        =      F    write LOCPOT, total local potential
   LVHAR        =      F    write LOCPOT, Hartree potential only
   LELF         =      F    write electronic localiz. function (ELF)
   LORBIT       =     11    0 simple, 1 ext, 2 COOP (PROOUT), +10 PAW based schemes


 Dipole corrections
   LMONO  =      F    monopole corrections only (constant potential shift)
   LDIPOL =      F    correct potential (dipole corrections)
   IDIPOL =      0    1-x, 2-y, 3-z, 4-all directions 
   EPSILON=  1.0000000 bulk dielectric constant

 Exchange correlation treatment:
   GGA     =    --    GGA type
   LEXCH   =     8    internal setting for exchange type
   LIBXC   =     F    Libxc                    
   VOSKOWN =     0    Vosko Wilk Nusair interpolation
   LHFCALC =     F    Hartree Fock is set to
   LHFONE  =     F    Hartree Fock one center treatment
   AEXX    =    0.0000 exact exchange contribution

 Linear response parameters
   LEPSILON=     F    determine dielectric tensor
   LRPA    =     F    only Hartree local field effects (RPA)
   LNABLA  =     F    use nabla operator in PAW spheres
   LVEL    =     F    velocity operator in full k-point grid
   CSHIFT  =0.1000    complex shift for real part using Kramers Kronig
   OMEGAMAX=  -1.0    maximum frequency
   DEG_THRESHOLD= 0.2000000E-02 threshold for treating states as degnerate
   RTIME   =   -0.100 relaxation time in fs
  (WPLASMAI=    0.000 imaginary part of plasma frequency in eV, 0.658/RTIME)
   DFIELD  = 0.0000000 0.0000000 0.0000000 field for delta impulse in time
 
  Optional k-point grid parameters
   LKPOINTS_OPT  =     F    use optional k-point grid
   KPOINTS_OPT_MODE=     1    mode for optional k-point grid
 
 Orbital magnetization related:
   ORBITALMAG=     F  switch on orbital magnetization
   LCHIMAG   =     F  perturbation theory with respect to B field
   DQ        =  0.001000  dq finite difference perturbation B field
   LLRAUG    =     F  two centre corrections for induced B field



--------------------------------------------------------------------------------------------------------


 conjugate gradient relaxation of ions
 charge density and potential will be updated during run
 spin polarized calculation
 RMM-DIIS sequential band-by-band and
  variant of blocked Davidson during initial phase
 perform sub-space diagonalisation
    before iterative eigenvector-optimisation
 modified Broyden-mixing scheme, WC =      100.0
 initial mixing is a Kerker type mixing with AMIX =  0.4000 and BMIX =      1.0000
 Hartree-type preconditioning will be used
 using additional bands            44
 real space projection scheme for non local part
 use partial core corrections
 calculate Harris-corrections to forces 
   (improved forces if not selfconsistent)
 use gradient corrections 
 use of overlap-Matrix (Vanderbilt PP)
 Gauss-broadening in eV      SIGMA  =   0.20


--------------------------------------------------------------------------------------------------------


  energy-cutoff  :      520.00
  volume of cell :      772.20
      direct lattice vectors                 reciprocal lattice vectors
     6.562773880  0.000000000  0.000000000     0.152374593  0.000000000  0.000000000
     0.000000000  6.746128120  0.000000000     0.000000000  0.148233176  0.000000000
     0.000000000  0.000000000 17.441640400     0.000000000  0.000000000  0.057334057

  length of vectors
     6.562773880  6.746128120 17.441640400     0.152374593  0.148233176  0.057334057


 
 k-points in units of 2pi/SCALE and weight: Kpoints from vasprun.xml                
   0.00000000  0.01852915  0.01433351       0.100
   0.03047492  0.01852915  0.01433351       0.200
   0.06094984  0.01852915  0.01433351       0.200
   0.00000000  0.05558744  0.01433351       0.100
   0.03047492  0.05558744  0.01433351       0.200
   0.06094984  0.05558744  0.01433351       0.200
 
 k-points in reciprocal lattice and weights: Kpoints from vasprun.xml                
   0.00000000  0.12500000  0.25000000       0.100
   0.20000000  0.12500000  0.25000000       0.200
   0.40000000  0.12500000  0.25000000       0.200
   0.00000000  0.37500000  0.25000000       0.100
   0.20000000  0.37500000  0.25000000       0.200
   0.40000000  0.37500000  0.25000000       0.200
 
 position of ions in fractional coordinates (direct lattice) 
   0.70876670  0.51986199  0.77384203
   0.79123330  0.48013801  0.27384203
   0.29123330  0.01986199  0.72615797
   0.20876670  0.98013801  0.22615797
   0.01500656  0.99532051  0.96712826
   0.51500656  0.50467949  0.03287174
   0.48499344  0.00467949  0.46712826
   0.98499344  0.49532051  0.53287174
   0.78986047  0.98808078  0.66261426
   0.71013953  0.01191922  0.16261426
   0.21013953  0.48808078  0.83738574
   0.28986047  0.51191922  0.33738574
   0.92457168  0.24667206  0.14040305
   0.60559452  0.24849255  0.64711350
   0.54608589  0.50896745  0.41169423
   0.38253442  0.55577049  0.22038810
   0.89440548  0.75150745  0.14711350
   0.42457168  0.25332794  0.85959695
   0.11746558  0.44422951  0.72038810
   0.39440548  0.74849255  0.85288650
   0.07542832  0.74667206  0.35959695
   0.88253442  0.94422951  0.77961190
   0.95391411  0.49103255  0.91169423
   0.61746558  0.05577049  0.27961190
   0.57542832  0.75332794  0.64040305
   0.10559452  0.25150745  0.35288650
   0.45391411  0.00896745  0.08830577
   0.04608589  0.99103255  0.58830577
 
 position of ions in cartesian coordinates  (Angst):
   4.65147559  3.50705559 13.49707441
   5.19268523  3.23907253  4.77625421
   1.91129829  0.13399153 12.66538619
   1.37008865  6.61213659  3.94456599
   0.09848466  6.71455968 16.86830333
   3.37987160  3.40463250  0.57333707
   3.18290228  0.03156844  8.14748313
   6.46428922  3.34149562  9.29415727
   5.18367566  6.66571953 11.55707965
   4.66048516  0.08040859  2.83625945
   1.37909822  3.29265547 14.60538095
   1.90228872  3.45347265  5.88456075
   6.06775487  1.66408132  2.44885951
   3.97437990  1.67636258 11.28672096
   3.58383822  3.43355963  7.18062271
   2.51048690  3.74929893  3.84392999
   5.86978092  5.06976554  2.56590076
   2.78636793  1.70898274 14.99278089
   0.77090004  2.99682919 12.56475019
   2.58839398  5.04942664 14.87573964
   0.49501901  5.03714538  6.27196069
   5.79187384  6.36989325 13.59771041
   6.26032260  3.31256849 15.90144291
   4.05228698  0.37623487  4.87689021
   3.77640595  5.08204680 11.16967971
   0.69299296  1.69670148  6.15491944
   2.97893566  0.06049557  1.54019749
   0.30245128  6.68563255 10.26101769
 


--------------------------------------------------------------------------------------------------------


 k-point   1 :   0.0000 0.1250 0.2500  plane waves:   20830
 k-point   2 :   0.2000 0.1250 0.2500  plane waves:   20793
 k-point   3 :   0.4000 0.1250 0.2500  plane waves:   20811
 k-point   4 :   0.0000 0.3750 0.2500  plane waves:   20763
 k-point   5 :   0.2000 0.3750 0.2500  plane waves:   20766
 k-point   6 :   0.4000 0.3750 0.2500  plane waves:   20791

 maximum and minimum number of plane-waves per node :     20830    20763

 maximum number of plane-waves:     20830
 maximum index in each direction: 
   IXMAX=   12   IYMAX=   12   IZMAX=   32
   IXMIN=  -12   IYMIN=  -12   IZMIN=  -32


 serial   3D FFT for wavefunctions
 parallel 3D FFT for charge:
    minimum data exchange during FFTs selected (reduces bandwidth)


 total amount of memory used by VASP MPI-rank0   329072. kBytes
=======================================================================

   base      :      30000. kBytes
   nonlr-proj:      21083. kBytes
   fftplans  :      25087. kBytes
   grid      :      95680. kBytes
   one-center:       2752. kBytes
   wavefun   :     154470. kBytes
 
     INWAV:  cpu time      0.0001: real time      0.0004
 Broyden mixing: mesh for mixing (old mesh)
   NGX = 25   NGY = 25   NGZ = 65
  (NGX  =100   NGY  =100   NGZ  =280)
  gives a total of  40625 points

 initial charge density was supplied:
 charge density of overlapping atoms calculated
 number of electron     216.0000000 magnetization      42.4000000
 keeping initial charge density in first step


--------------------------------------------------------------------------------------------------------


 Maximum index for non-local projection operator          7933
 Maximum index for augmentation-charges          6307 (set IRDMAX)


--------------------------------------------------------------------------------------------------------


 First call to EWALD:  gamma=   0.193
 Maximum number of real-space cells 4x 4x 2
 Maximum number of reciprocal cells 2x 2x 5

    FEWALD:  cpu time      0.0018: real time      0.0018


--------------------------------------- Iteration      1(   1)  ---------------------------------------


    POTLOK:  cpu time      0.1193: real time      0.1597
    SETDIJ:  cpu time      0.0397: real time      0.0401
     EDDAV:  cpu time      2.1940: real time      2.2035
       DOS:  cpu time      0.0008: real time      0.0008
    --------------------------------------------
      LOOP:  cpu time      2.3538: real time      2.4040

 eigenvalue-minimisations  :  4896
 total energy-change (2. order) : 0.2724486E+04  (-0.7252767E+04)
 number of electron     216.0000000 magnetization      42.4000000
 augmentation part      216.0000000 magnetization      42.4000000

 Free energy of the ion-electron system (eV)
  ---------------------------------------------------
  alpha Z        PSCENC =       651.74763319
  Ewald energy   TEWEN  =    -11476.22461623
  -Hartree energ DENC   =     -6085.58818358
  -exchange      EXHF   =         0.00000000
  -V(xc)+E(xc)   XCENC  =       615.78822686
  PAW double counting   =     14710.93516313   -15146.67762626
  entropy T*S    EENTRO =        -0.11026573
  eigenvalues    EBANDS =      1483.96882383
  atomic energy  EATOM  =     17970.64731762
  Solvation  Ediel_sol  =         0.00000000
  ---------------------------------------------------
  free energy    TOTEN  =      2724.48647282 eV

  energy without entropy =     2724.59673855  energy(sigma->0) =     2724.54160569


--------------------------------------------------------------------------------------------------------




--------------------------------------- Iteration      1(   2)  ---------------------------------------


     EDDAV:  cpu time      1.9419: real time      1.9436
       DOS:  cpu time      0.0008: real time      0.0008
    --------------------------------------------
      LOOP:  cpu time      1.9427: real time      1.9443

 eigenvalue-minimisations  :  4328
 total energy-change (2. order) :-0.1993946E+04  (-0.1738440E+04)
 number of electron     216.0000000 magnetization      42.4000000
 augmentation part      216.0000000 magnetization      42.4000000

 Free energy of the ion-electron system (eV)
  ---------------------------------------------------
  alpha Z        PSCENC =       651.74763319
  Ewald energy   TEWEN  =    -11476.22461623
  -Hartree energ DENC   =     -6085.58818358
  -exchange      EXHF   =         0.00000000
  -V(xc)+E(xc)   XCENC  =       615.78822686
  PAW double counting   =     14710.93516313   -15146.67762626
  entropy T*S    EENTRO =        -0.39776310
  eigenvalues    EBANDS =      -509.68928550
  atomic energy  EATOM  =     17970.64731762
  Solvation  Ediel_sol  =         0.00000000
  ---------------------------------------------------
  free energy    TOTEN  =       730.54086612 eV

  energy without entropy =      730.93862922  energy(sigma->0) =      730.73974767


--------------------------------------------------------------------------------------------------------




--------------------------------------- Iteration      1(   3)  ---------------------------------------


     EDDAV:  cpu time      1.9255: real time      1.9271
       DOS:  cpu time      0.0008: real time      0.0008
    --------------------------------------------
      LOOP:  cpu time      1.9263: real time      1.9280

 eigenvalue-minimisations  :  4280
 total energy-change (2. order) :-0.7484275E+03  (-0.6311305E+03)
 number of electron     216.0000000 magnetization      42.4000000
 augmentation part      216.0000000 magnetization      42.4000000

 Free energy of the ion-electron system (eV)
  ---------------------------------------------------
  alpha Z        PSCENC =       651.74763319
  Ewald energy   TEWEN  =    -11476.22461623
  -Hartree energ DENC   =     -6085.58818358
  -exchange      EXHF   =         0.00000000
  -V(xc)+E(xc)   XCENC  =       615.78822686
  PAW double counting   =     14710.93516313   -15146.67762626
  entropy T*S    EENTRO =        -0.17118044
  eigenvalues    EBANDS =     -1258.34337588
  atomic energy  EATOM  =     17970.64731762
  Solvation  Ediel_sol  =         0.00000000
  ---------------------------------------------------
  free energy    TOTEN  =       -17.88664159 eV

  energy without entropy =      -17.71546115  energy(sigma->0) =      -17.80105137


--------------------------------------------------------------------------------------------------------




--------------------------------------- Iteration      1(   4)  ---------------------------------------


     EDDAV:  cpu time      2.0701: real time      2.0722
       DOS:  cpu time      0.0008: real time      0.0008
    --------------------------------------------
      LOOP:  cpu time      2.0709: real time      2.0731

 eigenvalue-minimisations  :  4648
 total energy-change (2. order) :-0.1427425E+03  (-0.1380637E+03)
 number of electron     216.0000000 magnetization      42.4000000
 augmentation part      216.0000000 magnetization      42.4000000

 Free energy of the ion-electron system (eV)
  ---------------------------------------------------
  alpha Z        PSCENC =       651.74763319
  Ewald energy   TEWEN  =    -11476.22461623
  -Hartree energ DENC   =     -6085.58818358
  -exchange      EXHF   =         0.00000000
  -V(xc)+E(xc)   XCENC  =       615.78822686
  PAW double counting   =     14710.93516313   -15146.67762626
  entropy T*S    EENTRO =        -0.85762132
  eigenvalues    EBANDS =     -1400.39942881
  atomic energy  EATOM  =     17970.64731762
  Solvation  Ediel_sol  =         0.00000000
  ---------------------------------------------------
  free energy    TOTEN  =      -160.62913540 eV

  energy without entropy =     -159.77151408  energy(sigma->0) =     -160.20032474


--------------------------------------------------------------------------------------------------------




--------------------------------------- Iteration      1(   5)  ---------------------------------------


     EDDAV:  cpu time      2.5936: real time      2.5952
       DOS:  cpu time      0.0009: real time      0.0009
    CHARGE:  cpu time      0.1219: real time      0.1219
    MIXING:  cpu time      0.0061: real time      0.0061
    --------------------------------------------
      LOOP:  cpu time      2.7224: real time      2.7241

 eigenvalue-minimisations  :  6160
 total energy-change (2. order) :-0.1157329E+02  (-0.1127329E+02)
 number of electron     215.9999988 magnetization      39.0183267
 augmentation part        1.1537810 magnetization      34.3048521

 Broyden mixing:
  rms(total) = 0.41005E+01    rms(broyden)= 0.41005E+01
  rms(prec ) = 0.44216E+01
  weight for this iteration     100.00

 Free energy of the ion-electron system (eV)
  ---------------------------------------------------
  alpha Z        PSCENC =       651.74763319
  Ewald energy   TEWEN  =    -11476.22461623
  -Hartree energ DENC   =     -6085.58818358
  -exchange      EXHF   =         0.00000000
  -V(xc)+E(xc)   XCENC  =       615.78822686
  PAW double counting   =     14710.93516313   -15146.67762626
  entropy T*S    EENTRO =        -0.99424945
  eigenvalues    EBANDS =     -1411.83608939
  atomic energy  EATOM  =     17970.64731762
  Solvation  Ediel_sol  =         0.00000000
  ---------------------------------------------------
  free energy    TOTEN  =      -172.20242411 eV

  energy without entropy =     -171.20817466  energy(sigma->0) =     -171.70529939


--------------------------------------------------------------------------------------------------------




--------------------------------------- Iteration      1(   6)  ---------------------------------------


    POTLOK:  cpu time      0.0148: real time      0.0154
    SETDIJ:  cpu time      0.0361: real time      0.0361
    EDDIAG:  cpu time      0.1438: real time      0.1438
  RMM-DIIS:  cpu time      1.0481: real time      1.0502
    ORTHCH:  cpu time      0.0536: real time      0.0536
       DOS:  cpu time      0.0009: real time      0.0009
    CHARGE:  cpu time      0.1191: real time      0.1192
    MIXING:  cpu time      0.0067: real time      0.0090
    --------------------------------------------
      LOOP:  cpu time      1.4231: real time      1.4281

 eigenvalue-minimisations  :  4463
 total energy-change (2. order) :-0.8632850E+02  (-0.3250467E+02)
 number of electron     215.9999995 magnetization      38.1620183
 augmentation part       37.0485738 magnetization      31.5574551

 Broyden mixing:
  rms(total) = 0.16351E+02    rms(broyden)= 0.16351E+02
  rms(prec ) = 0.18076E+02
  weight for this iteration     100.00

 eigenvalues of (default mixing * dielectric matrix)
  average eigenvalue GAMMA=   0.1452
  0.1452

 Free energy of the ion-electron system (eV)
  ---------------------------------------------------
  alpha Z        PSCENC =       651.74763319
  Ewald energy   TEWEN  =    -11476.22461623
  -Hartree energ DENC   =     -5819.01924786
  -exchange      EXHF   =         0.00000000
  -V(xc)+E(xc)   XCENC  =       615.96081675
  PAW double counting   =     16225.27719632   -16584.23765190
  entropy T*S    EENTRO =        -0.64506968
  eigenvalues    EBANDS =     -1842.03730353
  atomic energy  EATOM  =     17970.64731762
  Solvation  Ediel_sol  =         0.00000000
  ---------------------------------------------------
  free energy    TOTEN  =      -258.53092533 eV

  energy without entropy =     -257.88585565  energy(sigma->0) =     -258.20839049


--------------------------------------------------------------------------------------------------------




--------------------------------------- Iteration      1(   7)  ---------------------------------------


    POTLOK:  cpu time      0.0148: real time      0.0154
    SETDIJ:  cpu time      0.0357: real time      0.0357
    EDDIAG:  cpu time      0.1431: real time      0.1432
  RMM-DIIS:  cpu time      1.0558: real time      1.0564
    ORTHCH:  cpu time      0.0536: real time      0.0536
       DOS:  cpu time      0.0009: real time      0.0009
    CHARGE:  cpu time      0.1160: real time      0.1160
    MIXING:  cpu time      0.0061: real time      0.0061
    --------------------------------------------
      LOOP:  cpu time      1.4260: real time      1.4274

 eigenvalue-minimisations  :  4853
 total energy-change (2. order) : 0.9497298E+02  (-0.8057936E+01)
 number of electron     215.9999989 magnetization      36.0643450
 augmentation part        3.9892211 magnetization      34.1868326

 Broyden mixing:
  rms(total) = 0.30740E+01    rms(broyden)= 0.30739E+01
  rms(prec ) = 0.31516E+01
  weight for this iteration     100.00

 eigenvalues of (default mixing * dielectric matrix)
  average eigenvalue GAMMA=   0.3093
  0.4953  0.1233

 Free energy of the ion-electron system (eV)
  ---------------------------------------------------
  alpha Z        PSCENC =       651.74763319
  Ewald energy   TEWEN  =    -11476.22461623
  -Hartree energ DENC   =     -6047.16024328
  -exchange      EXHF   =         0.00000000
  -V(xc)+E(xc)   XCENC  =       617.97630073
  PAW double counting   =     16851.72813417   -17297.59320531
  entropy T*S    EENTRO =        -0.87501600
  eigenvalues    EBANDS =     -1433.80425460
  atomic energy  EATOM  =     17970.64731762
  Solvation  Ediel_sol  =         0.00000000
  ---------------------------------------------------
  free energy    TOTEN  =      -163.55794972 eV

  energy without entropy =     -162.68293371  energy(sigma->0) =     -163.12044172


--------------------------------------------------------------------------------------------------------




--------------------------------------- Iteration      1(   8)  ---------------------------------------


    POTLOK:  cpu time      0.0147: real time      0.0152
    SETDIJ:  cpu time      0.0355: real time      0.0355
    EDDIAG:  cpu time      0.1431: real time      0.1431
  RMM-DIIS:  cpu time      1.1280: real time      1.1291
    ORTHCH:  cpu time      0.0535: real time      0.0535
       DOS:  cpu time      0.0008: real time      0.0008
    CHARGE:  cpu time      0.1164: real time      0.1164
    MIXING:  cpu time      0.0063: real time      0.0063
    --------------------------------------------
      LOOP:  cpu time      1.4983: real time      1.5000

 eigenvalue-minimisations  :  5131
 total energy-change (2. order) :-0.1740156E+01  (-0.1220316E+01)
 number of electron     215.9999989 magnetization      32.4857423
 augmentation part        3.8407963 magnetization      30.5424413

 Broyden mixing:
  rms(total) = 0.18768E+01    rms(broyden)= 0.18768E+01
  rms(prec ) = 0.19875E+01
  weight for this iteration     100.00

 eigenvalues of (default mixing * dielectric matrix)
  average eigenvalue GAMMA=   0.6035
  1.1849  0.1356  0.4901

 Free energy of the ion-electron system (eV)
  ---------------------------------------------------
  alpha Z        PSCENC =       651.74763319
  Ewald energy   TEWEN  =    -11476.22461623
  -Hartree energ DENC   =     -6054.22260721
  -exchange      EXHF   =         0.00000000
  -V(xc)+E(xc)   XCENC  =       622.79603961
  PAW double counting   =     18109.26367684   -18570.24276791
  entropy T*S    EENTRO =        -0.83164751
  eigenvalues    EBANDS =     -1418.23113415
  atomic energy  EATOM  =     17970.64731762
  Solvation  Ediel_sol  =         0.00000000
  ---------------------------------------------------
  free energy    TOTEN  =      -165.29810576 eV

  energy without entropy =     -164.46645824  energy(sigma->0) =     -164.88228200


--------------------------------------------------------------------------------------------------------




--------------------------------------- Iteration      1(   9)  ---------------------------------------


    POTLOK:  cpu time      0.0143: real time      0.0152
    SETDIJ:  cpu time      0.0356: real time      0.0356
    EDDIAG:  cpu time      0.1431: real time      0.1433
  RMM-DIIS:  cpu time      1.1473: real time      1.1479
    ORTHCH:  cpu time      0.0535: real time      0.0535
       DOS:  cpu time      0.0010: real time      0.0010
    CHARGE:  cpu time      0.1169: real time      0.1169
    MIXING:  cpu time      0.0065: real time      0.0065
    --------------------------------------------
      LOOP:  cpu time      1.5181: real time      1.5199

 eigenvalue-minimisations  :  5251
 total energy-change (2. order) : 0.1309546E+01  (-0.5861907E+00)
 number of electron     215.9999990 magnetization      30.1549936
 augmentation part        4.9272973 magnetization      29.0089165

 Broyden mixing:
  rms(total) = 0.93825E+00    rms(broyden)= 0.93824E+00
  rms(prec ) = 0.98086E+00
  weight for this iteration     100.00

 eigenvalues of (default mixing * dielectric matrix)
  average eigenvalue GAMMA=   0.8701
  2.1152  0.1347  0.7241  0.5065

 Free energy of the ion-electron system (eV)
  ---------------------------------------------------
  alpha Z        PSCENC =       651.74763319
  Ewald energy   TEWEN  =    -11476.22461623
  -Hartree energ DENC   =     -6047.36350421
  -exchange      EXHF   =         0.00000000
  -V(xc)+E(xc)   XCENC  =       626.56985056
  PAW double counting   =     20310.69981631   -20781.33749049
  entropy T*S    EENTRO =        -0.63939600
  eigenvalues    EBANDS =     -1418.08817096
  atomic energy  EATOM  =     17970.64731762
  Solvation  Ediel_sol  =         0.00000000
  ---------------------------------------------------
  free energy    TOTEN  =      -163.98856021 eV

  energy without entropy =     -163.34916420  energy(sigma->0) =     -163.66886220


--------------------------------------------------------------------------------------------------------




--------------------------------------- Iteration      1(  10)  ---------------------------------------


    POTLOK:  cpu time      0.0142: real time      0.0152
    SETDIJ:  cpu time      0.0357: real time      0.0357
    EDDIAG:  cpu time      0.1434: real time      0.1435
  RMM-DIIS:  cpu time      1.2692: real time      1.2699
    ORTHCH:  cpu time      0.0535: real time      0.0535
       DOS:  cpu time      0.0009: real time      0.0009
    CHARGE:  cpu time      0.1163: real time      0.1164
    MIXING:  cpu time      0.0066: real time      0.0066
    --------------------------------------------
      LOOP:  cpu time      1.6398: real time      1.6417

 eigenvalue-minimisations  :  5748
 total energy-change (2. order) :-0.1363569E+01  (-0.2129063E+00)
 number of electron     215.9999990 magnetization      29.2660731
 augmentation part        5.9737847 magnetization      28.6369547

 Broyden mixing:
  rms(total) = 0.63248E+00    rms(broyden)= 0.63248E+00
  rms(prec ) = 0.63709E+00
  weight for this iteration     100.00

 eigenvalues of (default mixing * dielectric matrix)
  average eigenvalue GAMMA=   0.8695
  2.1955  0.9672  0.1347  0.5251  0.5251

 Free energy of the ion-electron system (eV)
  ---------------------------------------------------
  alpha Z        PSCENC =       651.74763319
  Ewald energy   TEWEN  =    -11476.22461623
  -Hartree energ DENC   =     -6048.31810586
  -exchange      EXHF   =         0.00000000
  -V(xc)+E(xc)   XCENC  =       627.37377972
  PAW double counting   =     21485.21549309   -21955.52189765
  entropy T*S    EENTRO =        -0.52179832
  eigenvalues    EBANDS =     -1419.74993490
  atomic energy  EATOM  =     17970.64731762
  Solvation  Ediel_sol  =         0.00000000
  ---------------------------------------------------
  free energy    TOTEN  =      -165.35212935 eV

  energy without entropy =     -164.83033103  energy(sigma->0) =     -165.09123019


--------------------------------------------------------------------------------------------------------




--------------------------------------- Iteration      1(  11)  ---------------------------------------


    POTLOK:  cpu time      0.0144: real time      0.0152
    SETDIJ:  cpu time      0.0355: real time      0.0356
    EDDIAG:  cpu time      0.1434: real time      0.1435
  RMM-DIIS:  cpu time      1.1557: real time      1.1569
    ORTHCH:  cpu time      0.0537: real time      0.0537
       DOS:  cpu time      0.0009: real time      0.0009
    CHARGE:  cpu time      0.1172: real time      0.1173
    MIXING:  cpu time      0.0071: real time      0.0071
    --------------------------------------------
      LOOP:  cpu time      1.5279: real time      1.5302

 eigenvalue-minimisations  :  5278
 total energy-change (2. order) :-0.2030154E+01  (-0.1299654E+00)
 number of electron     215.9999990 magnetization      27.9838671
 augmentation part        4.2152534 magnetization      26.3104098

 Broyden mixing:
  rms(total) = 0.87568E+00    rms(broyden)= 0.87568E+00
  rms(prec ) = 0.97892E+00
  weight for this iteration     100.00

 eigenvalues of (default mixing * dielectric matrix)
  average eigenvalue GAMMA=   0.8393
  2.1135  1.3178  0.7266  0.1347  0.4795  0.2637

 Free energy of the ion-electron system (eV)
  ---------------------------------------------------
  alpha Z        PSCENC =       651.74763319
  Ewald energy   TEWEN  =    -11476.22461623
  -Hartree energ DENC   =     -6067.69819817
  -exchange      EXHF   =         0.00000000
  -V(xc)+E(xc)   XCENC  =       628.15680112
  PAW double counting   =     21642.31068430   -22114.83859353
  entropy T*S    EENTRO =        -0.73864180
  eigenvalues    EBANDS =     -1400.74467005
  atomic energy  EATOM  =     17970.64731762
  Solvation  Ediel_sol  =         0.00000000
  ---------------------------------------------------
  free energy    TOTEN  =      -167.38228355 eV

  energy without entropy =     -166.64364174  energy(sigma->0) =     -167.01296264


--------------------------------------------------------------------------------------------------------




--------------------------------------- Iteration      1(  12)  ---------------------------------------


    POTLOK:  cpu time      0.0140: real time      0.0152
    SETDIJ:  cpu time      0.0356: real time      0.0357
    EDDIAG:  cpu time      0.1430: real time      0.1431
  RMM-DIIS:  cpu time      1.1608: real time      1.1618
    ORTHCH:  cpu time      0.0534: real time      0.0534
       DOS:  cpu time      0.0008: real time      0.0008
    CHARGE:  cpu time      0.1170: real time      0.1172
    MIXING:  cpu time      0.0070: real time      0.0070
    --------------------------------------------
      LOOP:  cpu time      1.5318: real time      1.5342

 eigenvalue-minimisations  :  5300
 total energy-change (2. order) :-0.4322073E+00  (-0.1151335E+00)
 number of electron     215.9999990 magnetization      27.0601691
 augmentation part        4.6826666 magnetization      25.8280788

 Broyden mixing:
  rms(total) = 0.52906E+00    rms(broyden)= 0.52906E+00
  rms(prec ) = 0.60895E+00
  weight for this iteration     100.00

 eigenvalues of (default mixing * dielectric matrix)
  average eigenvalue GAMMA=   0.9278
  2.2997  1.6117  0.9688  0.1347  0.6893  0.4490  0.3411

 Free energy of the ion-electron system (eV)
  ---------------------------------------------------
  alpha Z        PSCENC =       651.74763319
  Ewald energy   TEWEN  =    -11476.22461623
  -Hartree energ DENC   =     -6058.48141214
  -exchange      EXHF   =         0.00000000
  -V(xc)+E(xc)   XCENC  =       626.92365408
  PAW double counting   =     21920.09421047   -22387.51492903
  entropy T*S    EENTRO =        -0.65090559
  eigenvalues    EBANDS =     -1414.35544318
  atomic energy  EATOM  =     17970.64731762
  Solvation  Ediel_sol  =         0.00000000
  ---------------------------------------------------
  free energy    TOTEN  =      -167.81449082 eV

  energy without entropy =     -167.16358523  energy(sigma->0) =     -167.48903802


--------------------------------------------------------------------------------------------------------




--------------------------------------- Iteration      1(  13)  ---------------------------------------


    POTLOK:  cpu time      0.0142: real time      0.0154
    SETDIJ:  cpu time      0.0359: real time      0.0360
    EDDIAG:  cpu time      0.1430: real time      0.1431
  RMM-DIIS:  cpu time      1.1764: real time      1.1772
    ORTHCH:  cpu time      0.0536: real time      0.0537
       DOS:  cpu time      0.0009: real time      0.0009
    CHARGE:  cpu time      0.1169: real time      0.1170
    MIXING:  cpu time      0.0074: real time      0.0074
    --------------------------------------------
      LOOP:  cpu time      1.5484: real time      1.5506

 eigenvalue-minimisations  :  5332
 total energy-change (2. order) :-0.2963517E+00  (-0.9495750E-01)
 number of electron     215.9999990 magnetization      26.5495717
 augmentation part        5.8942547 magnetization      26.1529975

 Broyden mixing:
  rms(total) = 0.43156E+00    rms(broyden)= 0.43155E+00
  rms(prec ) = 0.43292E+00
  weight for this iteration     100.00

 eigenvalues of (default mixing * dielectric matrix)
  average eigenvalue GAMMA=   0.9172
  2.2398  2.2398  0.1347  0.7312  0.5881  0.5881  0.4079  0.4079

 Free energy of the ion-electron system (eV)
  ---------------------------------------------------
  alpha Z        PSCENC =       651.74763319
  Ewald energy   TEWEN  =    -11476.22461623
  -Hartree energ DENC   =     -6049.21653403
  -exchange      EXHF   =         0.00000000
  -V(xc)+E(xc)   XCENC  =       626.37191038
  PAW double counting   =     21994.34181022   -22456.82251030
  entropy T*S    EENTRO =        -0.49942174
  eigenvalues    EBANDS =     -1428.45643167
  atomic energy  EATOM  =     17970.64731762
  Solvation  Ediel_sol  =         0.00000000
  ---------------------------------------------------
  free energy    TOTEN  =      -168.11084256 eV

  energy without entropy =     -167.61142082  energy(sigma->0) =     -167.86113169


--------------------------------------------------------------------------------------------------------




--------------------------------------- Iteration      1(  14)  ---------------------------------------


    POTLOK:  cpu time      0.0143: real time      0.0155
    SETDIJ:  cpu time      0.0353: real time      0.0353
    EDDIAG:  cpu time      0.1431: real time      0.1432
  RMM-DIIS:  cpu time      1.2657: real time      1.2666
    ORTHCH:  cpu time      0.0536: real time      0.0536
       DOS:  cpu time      0.0009: real time      0.0009
    CHARGE:  cpu time      0.1163: real time      0.1163
    MIXING:  cpu time      0.0073: real time      0.0073
    --------------------------------------------
      LOOP:  cpu time      1.6364: real time      1.6385

 eigenvalue-minimisations  :  5771
 total energy-change (2. order) :-0.3002405E+00  (-0.4833781E-01)
 number of electron     215.9999990 magnetization      26.0091189
 augmentation part        5.3785328 magnetization      25.3992248

 Broyden mixing:
  rms(total) = 0.24094E+00    rms(broyden)= 0.24094E+00
  rms(prec ) = 0.26142E+00
  weight for this iteration     100.00

 eigenvalues of (default mixing * dielectric matrix)
  average eigenvalue GAMMA=   0.9616
  2.3719  2.3719  0.1347  0.7995  0.7995  0.7587  0.6143  0.4021  0.4021

 Free energy of the ion-electron system (eV)
  ---------------------------------------------------
  alpha Z        PSCENC =       651.74763319
  Ewald energy   TEWEN  =    -11476.22461623
  -Hartree energ DENC   =     -6052.93469464
  -exchange      EXHF   =         0.00000000
  -V(xc)+E(xc)   XCENC  =       626.67937656
  PAW double counting   =     21947.25040473   -22409.03841088
  entropy T*S    EENTRO =        -0.53908988
  eigenvalues    EBANDS =     -1425.99900348
  atomic energy  EATOM  =     17970.64731762
  Solvation  Ediel_sol  =         0.00000000
  ---------------------------------------------------
  free energy    TOTEN  =      -168.41108302 eV

  energy without entropy =     -167.87199314  energy(sigma->0) =     -168.14153808


--------------------------------------------------------------------------------------------------------




--------------------------------------- Iteration      1(  15)  ---------------------------------------


    POTLOK:  cpu time      0.0141: real time      0.0153
    SETDIJ:  cpu time      0.0356: real time      0.0356
    EDDIAG:  cpu time      0.1434: real time      0.1434
  RMM-DIIS:  cpu time      1.2361: real time      1.2368
    ORTHCH:  cpu time      0.0534: real time      0.0534
       DOS:  cpu time      0.0009: real time      0.0009
    CHARGE:  cpu time      0.1156: real time      0.1156
    MIXING:  cpu time      0.0078: real time      0.0078
    --------------------------------------------
      LOOP:  cpu time      1.6068: real time      1.6088

 eigenvalue-minimisations  :  5635
 total energy-change (2. order) :-0.1015514E+00  (-0.2955080E-01)
 number of electron     215.9999990 magnetization      25.0879057
 augmentation part        5.8198213 magnetization      24.7919015

 Broyden mixing:
  rms(total) = 0.27330E+00    rms(broyden)= 0.27330E+00
  rms(prec ) = 0.27434E+00
  weight for this iteration     100.00

 eigenvalues of (default mixing * dielectric matrix)
  average eigenvalue GAMMA=   1.0070
  2.6683  2.6683  0.8917  0.8917  0.1347  0.7235  0.7235  0.5721  0.3978  0.3978

 Free energy of the ion-electron system (eV)
  ---------------------------------------------------
  alpha Z        PSCENC =       651.74763319
  Ewald energy   TEWEN  =    -11476.22461623
  -Hartree energ DENC   =     -6050.51648839
  -exchange      EXHF   =         0.00000000
  -V(xc)+E(xc)   XCENC  =       626.76646743
  PAW double counting   =     21897.10592625   -22356.56245596
  entropy T*S    EENTRO =        -0.49352316
  eigenvalues    EBANDS =     -1430.98289513
  atomic energy  EATOM  =     17970.64731762
  Solvation  Ediel_sol  =         0.00000000
  ---------------------------------------------------
  free energy    TOTEN  =      -168.51263439 eV

  energy without entropy =     -168.01911122  energy(sigma->0) =     -168.26587281


--------------------------------------------------------------------------------------------------------




--------------------------------------- Iteration      1(  16)  ---------------------------------------


    POTLOK:  cpu time      0.0142: real time      0.0154
    SETDIJ:  cpu time      0.0355: real time      0.0355
    EDDIAG:  cpu time      0.1430: real time      0.1431
  RMM-DIIS:  cpu time      1.2554: real time      1.2561
    ORTHCH:  cpu time      0.0537: real time      0.0537
       DOS:  cpu time      0.0009: real time      0.0009
    CHARGE:  cpu time      0.1160: real time      0.1160
    MIXING:  cpu time      0.0080: real time      0.0080
    --------------------------------------------
      LOOP:  cpu time      1.6266: real time      1.6287

 eigenvalue-minimisations  :  5732
 total energy-change (2. order) :-0.6601250E-01  (-0.1640907E-01)
 number of electron     215.9999990 magnetization      24.4521675
 augmentation part        5.6236133 magnetization      24.1163273

 Broyden mixing:
  rms(total) = 0.78507E-01    rms(broyden)= 0.78506E-01
  rms(prec ) = 0.85874E-01
  weight for this iteration     100.00

 eigenvalues of (default mixing * dielectric matrix)
  average eigenvalue GAMMA=   1.1089
  3.0718  3.0718  1.2968  1.0789  0.1347  0.7314  0.7314  0.7146  0.5724  0.3971
  0.3971

 Free energy of the ion-electron system (eV)
  ---------------------------------------------------
  alpha Z        PSCENC =       651.74763319
  Ewald energy   TEWEN  =    -11476.22461623
  -Hartree energ DENC   =     -6053.50503574
  -exchange      EXHF   =         0.00000000
  -V(xc)+E(xc)   XCENC  =       627.46634510
  PAW double counting   =     21797.71409821   -22255.22792750
  entropy T*S    EENTRO =        -0.50375805
  eigenvalues    EBANDS =     -1430.69270347
  atomic energy  EATOM  =     17970.64731762
  Solvation  Ediel_sol  =         0.00000000
  ---------------------------------------------------
  free energy    TOTEN  =      -168.57864689 eV

  energy without entropy =     -168.07488883  energy(sigma->0) =     -168.32676786


--------------------------------------------------------------------------------------------------------




--------------------------------------- Iteration      1(  17)  ---------------------------------------


    POTLOK:  cpu time      0.0141: real time      0.0154
    SETDIJ:  cpu time      0.0356: real time      0.0357
[...]
  296              map_forward                           0.011653                    140   6
  297                map_gather                            0.002024                   70   7
  298                m_alltoallv_z                         0.001031                   70   7
  299                map_scatter                           0.007283                   70   7
  300              map_backward                          0.011998                    168   6
  301                map_gather                            0.002555                   84   7
  302                m_alltoallv_z                         0.001061                   84   7
  303                map_scatter                           0.006442                   84   7
  304        m_sumb_d                              0.000237                           35   3
  305        forhar                                0.035317                           14   3
  306          m_sumb_d                              0.000562                         14   4
  307        strehar                               0.023227                            7   3
  308          m_sumb_d                              0.000108                          7   4
  309        chggra                                0.007435                            7   3
  310          fft3d_mpi                             0.004776                         21   4
  311            fftbrc_mpi                            0.003828                       21   5
  312              fftbas_plan_mpi                       0.003817                     21   6
  313                map_forward                           0.002278                   28   7
  314                  map_gather                            0.000397                 14   8
  315                  m_alltoallv_z                         0.000205                 14   8
  316                  map_scatter                           0.001418                 14   8
  317                map_backward                          0.000937                   14   7
  318                  map_gather                            0.000210                  7   8
  319                  m_alltoallv_z                         0.000089                  7   8
  320                  map_scatter                           0.000481                  7   8
  321          m_sumb_d                              0.000069                         14   4
  322          pothar                                0.000655                          7   4
  323            m_sumb_d                              0.000075                        7   5
  324        brmix                                 0.054841                            7   3
  325          m_sumb_d                              0.000895                         42   4
  326          brpre                                 0.000451                         14   4
  327          setg0                                 0.020749                          7   4
  328          broyd                                 0.011524                          7   4
  329            m_sumb_d                              0.000352                      103   5
  330            brget                                 0.004308                      333   5
  331            brsav                                 0.001229                       93   5
  332        m_bcast_d                             0.000229                           14   3
  333      potlok                                0.067458                              7   2
  334        fft3d_mpi                             0.040811                          182   3
  335          fftbrc_mpi                            0.032337                        182   4
  336            fftbas_plan_mpi                       0.032246                      182   5
  337              map_forward                           0.014395                    196   6
  338                map_gather                            0.003028                  112   7
  339                m_alltoallv_z                         0.001448                  112   7
  340                map_scatter                           0.008331                  112   7
  341              map_backward                          0.012211                    168   6
  342                map_gather                            0.002560                   84   7
  343                m_alltoallv_z                         0.001081                   84   7
  344                map_scatter                           0.006640                   84   7
  345        m_sumb_d                              0.000197                           35   3
  346        pothar                                0.000726                            7   3
  347          m_sumb_d                              0.000067                          7   4
  348        m_bcast_d                             0.000173                           14   3
  349      potlok_metagga                        0.000001                              7   2
  350      set_dd_magatom                        0.000026                              7   2
  351      set_dd_paw                            0.162354                              7   2
  352        m_sumb_d                              0.002805                           49   3
  353      wavpre_noio                           0.367426                              6   2
  354        stufak                                0.188103                            6   3
  355      densta                                0.007276                              1   2
  356        m_sumb_d                              0.001574                           41   3
 
 Flat profile
 ============
 
             routine name                   CPU           calls
 ---------------------------------------------------------------
 init_acc                               11.677569           1
 raccmu_                                11.251755       24881
 eccp                                   10.825616      113795
 total_time                              9.259355           1
 phaser                                  5.878560        1326
 i2                                      5.784626       15395
 redis_pw                                5.175069       60756
 eddav                                   5.051180          11
 eccp_nl                                 4.706695       84155
 lapack                                  4.363479        9486
 w1_gemv                                 4.240145      176296
 m_sumb_d                                4.023738       37014
 rpromu_acc                              3.350239       33293
 setdij_                                 2.963674         251
 m_alltoall_d                            2.845087      424644
 eddrmm                                  2.804327          54
 fftwav                                  2.581064      203409
 acc_init_cublas                         2.457084           1
 rpro_isp                                2.321624         546
 cnorma                                  2.312628       84155
 eddiag                                  2.246059          54
 fft3d                                   2.152890      306556
 hamilt_local                            1.734081       24624
 set_dd_paw                              1.711490          75
 rspher_all                              1.708225          92
 overl1                                  1.451209       88148
 soft_charge                             1.342499          61
 set_charge                              1.334786          61
 w1_copy                                 1.218490      235569
 hamiltmu                                1.065876       24881
 setup_precond                           1.052168       29640
 w1_dscal                                0.990779      164322
 racc0mu_acc                             0.834249       24881
 newband                                 0.831065       25661
 pw_charge                               0.828199       20196
 augmentation_charge                     0.825877          61
 redis_proj                              0.817091       70260
 acc_init_cusolver                       0.799628           1
 apply_precond                           0.758518      163197
 w1_dot                                  0.704226       24614
 w1_daxpy                                0.667108      119082
 orth1                                   0.635750       35358
 w1_gaxpy                                0.635169      124627
 m_bcast_z                               0.541268       11310
 potlok                                  0.528325          68
 depsum                                  0.463673          61
 kinhamil                                0.445260      103147
 vhamil                                  0.438903      103147
 fftext_mpi                              0.411533      103147
 elmin                                   0.399952           7
 overl_mu                                0.387661       24881
 m_alltoallv_z                           0.369051        2456
 dfftw_execute                           0.347253         765
 fft3d_mpi                               0.321983      105345
 proall                                  0.309083           7
 orthch                                  0.292649          61
 overl                                   0.288477       34308
 zhegv                                   0.279635       34927
 fftwav_mpi                              0.274737      203409
 map_scatter                             0.266727        2456
 choleski                                0.233995         732
 stufak                                  0.220407           7
 brmix                                   0.181211          61
 wavpre_noio                             0.179323           6
 map_gather                              0.172140        2456
 force_and_stress                        0.165399           7
 ggemm                                   0.162528       11994
 acc_cufft_makeplan                      0.162433          19
 m_bcast_d                               0.156476       19137
 setg0                                   0.155700          75
 i3                                      0.154682       15395
 sphpro_fast                             0.154583           8
 fftbas_plan_mpi                         0.093152        2198
 lincom                                  0.052084        1512
 densta                                  0.044061          66
 broyd                                   0.039641          61
 forhar                                  0.034755          14
 strelo                                  0.029238           7
 brget                                   0.028297        2207
 strehar                                 0.023119           7
 map_backward                            0.021635        2302
 w1_projall                              0.020525       22373
 strnlr                                  0.018237           7
 i1                                      0.017654       15395
 forloc                                  0.017506           7
 map_forward                             0.017178        2094
 fft_gq                                  0.013008          61
 rsp                                     0.009471           7
 strkin                                  0.008983           7
 brsav                                   0.008443         655
 truncate_high_frequency_w1              0.008042      108163
 pothar                                  0.007013          75
 fornlr                                  0.006224           7
 inisym                                  0.004536           1
 brpre                                   0.004077         122
 chggra                                  0.001935           7
 fftbrc_mpi                              0.001137        2198
 brgrid                                  0.000432           1
 fordep                                  0.000389           7
 fewald                                  0.000373           7
 vectorpot                               0.000361          62
 set_dd_magatom                          0.000302          75
 rcp                                     0.000301           7
 shift_bands_between_low_high            0.000103         648
 posmap                                  0.000034           2
 crpa_reader                             0.000027           1
 potlok_metagga                          0.000012          68
 acc_cufft_makeplans                     0.000010           3
 rotate_active_occupied_orbital          0.000003           7
 redis_pw_over_bands                     0.000001           7
 ---------------------------------------------------------------
  summed up times     139.2162911891937     
 
 Accumulative profile
 ====================
 
             routine name                   CPU           calls
 ---------------------------------------------------------------
 total_time                            139.216291           1
 elmin                                  98.349224           7
 eddrmm                                 53.033787          54
 eddav                                  24.418781          11
 i3                                     16.491791       15395
 i2                                     15.254915       15395
 hamiltmu                               15.099742       24881
 force_and_stress                       13.583795           7
 raccmu_                                12.473665       24881
 init_acc                               11.677569           1
 eccp                                   10.825616      113795
 eddiag                                  7.743157          54
 strnlr                                  7.510861           7
 set_charge                              7.067765          61
 cnorma                                  7.019323       84155
 redis_pw                                6.493421       60756
 rpro_isp                                6.253560         546
 newband                                 6.049047       25661
 phaser                                  5.878560        1326
 w1_gemv                                 5.691354      176296
 eccp_nl                                 4.706695       84155
 lapack                                  4.363479        9486
 fftwav_mpi                              4.323552      203409
 fftwav                                  4.048815      203409
 m_sumb_d                                4.023738       37014
 orthch                                  3.675396          61
 soft_charge                             3.521831          61
 rpromu_acc                              3.350239       33293
 setdij_                                 3.073125         251
 m_alltoall_d                            2.845087      424644
 fornlr                                  2.503085           7
 acc_init_cublas                         2.457084           1
 redis_proj                              2.343826       70260
 fft3d_mpi                               2.295396      105345
 hamilt_local                            2.184368       24624
 fft3d                                   2.152890      306556
 set_dd_paw                              1.749215          75
 rspher_all                              1.708225          92
 kinhamil                                1.571584      103147
 augmentation_charge                     1.478134          61
 overl1                                  1.451209       88148
 fftbrc_mpi                              1.288274        2198
 fftbas_plan_mpi                         1.287136        2198
 w1_copy                                 1.218490      235569
 fftext_mpi                              1.126324      103147
 potlok                                  1.062290          68
 setup_precond                           1.052168       29640
 w1_dscal                                0.990779      164322
 racc0mu_acc                             0.834249       24881
 pw_charge                               0.828199       20196
 acc_init_cusolver                       0.799628           1
 w1_projall                              0.767442       22373
 apply_precond                           0.758518      163197
 w1_dot                                  0.704226       24614
 w1_daxpy                                0.667108      119082
 proall                                  0.653485           7
 orth1                                   0.635750       35358
 w1_gaxpy                                0.635169      124627
 map_backward                            0.543797        2302
 m_bcast_z                               0.541268       11310
 fordep                                  0.517314           7
 depsum                                  0.492486          61
 vhamil                                  0.438903      103147
 brmix                                   0.424751          61
 overl_mu                                0.387661       24881
 m_alltoallv_z                           0.369051        2456
 wavpre_noio                             0.367426           6
 dfftw_execute                           0.347253         765
 fft_gq                                  0.310385          61
 map_forward                             0.302934        2094
 overl                                   0.288477       34308
 i1                                      0.283566       15395
 zhegv                                   0.279635       34927
 map_scatter                             0.266727        2456
 choleski                                0.233995         732
 stufak                                  0.220407           7
 map_gather                              0.172140        2456
 ggemm                                   0.162528       11994
 acc_cufft_makeplans                     0.162443           3
 acc_cufft_makeplan                      0.162433          19
 sphpro_fast                             0.159724           8
 m_bcast_d                               0.156476       19137
 setg0                                   0.155700          75
 broyd                                   0.079053          61
 densta                                  0.059037          66
 lincom                                  0.052084        1512
 forhar                                  0.035317          14
 strelo                                  0.031249           7
 brget                                   0.028297        2207
 strehar                                 0.023227           7
 forloc                                  0.018903           7
 fewald                                  0.011597           7
 rsp                                     0.009471           7
 strkin                                  0.009063           7
 brsav                                   0.008443         655
 truncate_high_frequency_w1              0.008042      108163
 pothar                                  0.007861          75
 chggra                                  0.007435           7
 inisym                                  0.004570           1
 brpre                                   0.004077         122
 brgrid                                  0.000432           1
 vectorpot                               0.000361          62
 set_dd_magatom                          0.000302          75
 rcp                                     0.000301           7
 shift_bands_between_low_high            0.000103         648
 posmap                                  0.000034           2
 crpa_reader                             0.000027           1
 potlok_metagga                          0.000012          68
 rotate_active_occupied_orbital          0.000003           7
 redis_pw_over_bands                     0.000001           7
 ---------------------------------------------------------------
 
Profiling took   0.403494  0.277467  0.003277  0.003192 seconds
Profiling took   0.317297 seconds
