 vasp.6.3.2 27Jun22 (build Jul  3 2023 11:46:21) complex                         
 executed on    LinuxNV_CrayMPICH date 2024.04.19  12:19:35
 running on    4 total cores
 distrk:  each k-point on    4 cores,    1 groups
 distr:  one band on NCORE=   1 cores,    4 groups


--------------------------------------------------------------------------------------------------------


 INCAR:
   ADDGRID = True
   ALGO = Normal
   EDIFF = 0.0002
   ENCUT = 520.0
   IBRION = -1
   ICHARG = 0
   ISIF = 3
   ISMEAR = -5
   ISPIN = 2
   KPOINT_BSE = -1 0 0 0
   LAECHG = True
   LASPH = True
   LCHARG = True
   LELF = True
   LORBIT = 11
   LREAL = Auto
   LVHAR = True
   LWAVE = False
   MAGMOM = 1*0.6 1*7.0 2*0.6
   NELM = 1000
   NSW = 0
   PREC = accurate
   SIGMA = 0.05

 POTCAR:    PAW_PBE Yb_2 06Sep2000                
 POTCAR:    PAW_PBE Gd 23Dec2003                  
 POTCAR:    PAW_PBE Ag 02Apr2005                  
 POTCAR:    PAW_PBE Yb_2 06Sep2000                
   SHA256 =  447ea688f1b29a5c5d62bbadb2b3e4a6902763696c282b59e85a911f7e119eeb Yb_2/POTCAR           
   COPYR  = (c) Copyright 06Sep2000 Georg Kresse                                                    
   COPYR  = This file is part of the software VASP. Any use, copying, and all other rights are regul
   COPYR  = If you do not have a valid VASP license, you may not use, copy or distribute this file. 
   VRHFIN =Yb : [core=Xe4]                                                                          
   LEXCH  = PE                                                                                      
   EATOM  =   572.3552 eV,   42.0669 Ry                                                             
                                                                                                    
   TITEL  = PAW_PBE Yb_2 06Sep2000                                                                  
   LULTRA =        F    use ultrasoft PP ?                                                          
   IUNSCR =        1    unscreen: 0-lin 1-nonlin 2-no                                               
   RPACOR =    2.400    partial core radius                                                         
   POMASS =  173.040; ZVAL   =    8.000    mass and valenz                                          
   RCORE  =    3.100    outmost cutoff radius                                                       
   RWIGS  =    3.300; RWIGS  =    1.746    wigner-seitz radius (au A)                               
   ENMAX  =  112.578; ENMIN  =   84.433 eV                                                          
   RCLOC  =    2.410    cutoff for local pot                                                        
   LCOR   =        T    correct aug charges                                                         
   LPAW   =        T    paw PP                                                                      
   EAUG   =  301.012                                                                                
   DEXC   =    0.000                                                                                
   RMAX   =    3.170    core radius for proj-oper                                                   
   RAUG   =    1.300    factor for augmentation sphere                                              
   RDEP   =    3.215    radius for radial grids                                                     
   RDEPT  =    2.473    core radius for aug-charge                                                  
                                                                                                    
   Atomic configuration                                                                             
   14 entries                                                                                       
     n  l   j            E        occ.                                                              
     1  0  0.50    -61220.9726   2.0000                                                             
     2  0  0.50    -10371.0425   2.0000                                                             
     2  1  1.50     -9138.3712   6.0000                                                             
     3  0  0.50     -2337.6588   2.0000                                                             
     3  1  1.50     -1966.2680   6.0000                                                             
     3  2  2.50     -1514.8100  10.0000                                                             
     4  0  0.50      -459.9070   2.0000                                                             
     4  1  1.50      -338.0537   6.0000                                                             
     4  2  2.50      -177.8445  10.0000                                                             
     4  3  2.50        -3.0334  14.0000                                                             
     5  0  0.50       -54.9037   2.0000                                                             
     6  0  0.50        -3.9192   2.0000                                                             
     5  1  1.50       -27.4093   6.0000                                                             
     5  2  2.50        -2.0436   0.0000                                                             
   Description                                                                                      
     l       E           TYP  RCUT    TYP  RCUT                                                     
     0     -3.9192173     23  3.100                                                                 
     0     13.6058260     23  3.100                                                                 
     1    -27.4092538     23  3.100                                                                 
     1    -28.7698364     23  3.100                                                                 
     2     -2.0435951     23  3.100                                                                 
     2      2.2720029     23  3.100                                                                 
  local pseudopotential read in
  partial core-charges read in
  partial kinetic energy density read in
  atomic valenz-charges read in
  non local Contribution for L=            0  read in
    real space projection operators read in
  non local Contribution for L=            0  read in
    real space projection operators read in
  non local Contribution for L=            1  read in
    real space projection operators read in
  non local Contribution for L=            1  read in
    real space projection operators read in
  non local Contribution for L=            2  read in
    real space projection operators read in
  non local Contribution for L=            2  read in
    real space projection operators read in
    PAW grid and wavefunctions read in
 
   number of l-projection  operators is LMAX  =            6
   number of lm-projection operators is LMMAX =           18
 
 POTCAR:    PAW_PBE Gd 23Dec2003                  
   SHA256 =  58854b40b4643190560b0e2b62d2ab46bea96585f82c6231a0f4f44b8c3188dc Gd/POTCAR             
   COPYR  = (c) Copyright 23Dec2003 Georg Kresse                                                    
   COPYR  = This file is part of the software VASP. Any use, copying, and all other rights are regul
   COPYR  = If you do not have a valid VASP license, you may not use, copy or distribute this file. 
   VRHFIN =Gd : [core=Xe4]                                                                          
   LEXCH  = PE                                                                                      
   EATOM  =  3047.6032 eV,  223.9925 Ry                                                             
                                                                                                    
   TITEL  = PAW_PBE Gd 23Dec2003                                                                    
   LULTRA =        F    use ultrasoft PP ?                                                          
   IUNSCR =        1    unscreen: 0-lin 1-nonlin 2-no                                               
   RPACOR =    2.300    partial core radius                                                         
   POMASS =  157.250; ZVAL   =   18.000    mass and valenz                                          
   RCORE  =    2.800    outmost cutoff radius                                                       
   RWIGS  =    2.800; RWIGS  =    1.482    wigner-seitz radius (au A)                               
   ENMAX  =  256.472; ENMIN  =  192.354 eV                                                          
   RCLOC  =    2.316    cutoff for local pot                                                        
   LCOR   =        T    correct aug charges                                                         
   LPAW   =        T    paw PP                                                                      
   EAUG   =  537.243                                                                                
   DEXC   =    0.000                                                                                
   RMAX   =    2.857    core radius for proj-oper                                                   
   RAUG   =    1.300    factor for augmentation sphere                                              
   RDEP   =    2.921    radius for radial grids                                                     
   RDEPT  =    2.247    core radius for aug-charge                                                  
                                                                                                    
   Atomic configuration                                                                             
   14 entries                                                                                       
     n  l   j            E        occ.                                                              
     1  0  0.50    -50087.2354   2.0000                                                             
     2  0  0.50     -8269.2182   2.0000                                                             
     2  1  1.50     -7357.3672   6.0000                                                             
     3  0  0.50     -1833.2681   2.0000                                                             
     3  1  1.50     -1550.9376   6.0000                                                             
     3  2  2.50     -1178.7204  10.0000                                                             
     4  0  0.50      -369.2978   2.0000                                                             
     4  1  1.50      -276.2601   6.0000                                                             
     4  2  2.50      -147.6611  10.0000                                                             
     5  0  0.50       -49.7260   2.0000                                                             
     6  0  0.50        -4.1254   2.0000                                                             
     5  1  1.50       -27.2538   6.0000                                                             
     5  2  2.50        -2.5337   1.0000                                                             
     4  3  2.50        -8.7140   7.0000                                                             
   Description                                                                                      
     l       E           TYP  RCUT    TYP  RCUT                                                     
     0    -49.7259557     23  2.400                                                                 
     0     -4.1254107     23  2.400                                                                 
     1    -27.2537518     23  2.400                                                                 
     1     20.4087390     23  2.400                                                                 
     2     -2.5337329     23  2.500                                                                 
     2     13.6058260     23  2.500                                                                 
     3     -8.7140389     23  2.800                                                                 
     3     -9.5240782     23  2.800                                                                 
  local pseudopotential read in
  partial core-charges read in
  partial kinetic energy density read in
  atomic valenz-charges read in
  non local Contribution for L=            0  read in
    real space projection operators read in
  non local Contribution for L=            0  read in
    real space projection operators read in
  non local Contribution for L=            1  read in
    real space projection operators read in
  non local Contribution for L=            1  read in
    real space projection operators read in
  non local Contribution for L=            2  read in
    real space projection operators read in
  non local Contribution for L=            2  read in
    real space projection operators read in
  non local Contribution for L=            3  read in
    real space projection operators read in
  non local Contribution for L=            3  read in
    real space projection operators read in
    PAW grid and wavefunctions read in
 
   number of l-projection  operators is LMAX  =            8
   number of lm-projection operators is LMMAX =           32
 
 POTCAR:    PAW_PBE Ag 02Apr2005                  
   SHA256 =  6550cfa3543261e132c169e1b98a529204624d72be14e2da2e0242bcb74a174d Ag/POTCAR             
   COPYR  = (c) Copyright 02Apr2005 Georg Kresse                                                    
   COPYR  = This file is part of the software VASP. Any use, copying, and all other rights are regul
   COPYR  = If you do not have a valid VASP license, you may not use, copy or distribute this file. 
   VRHFIN =Ag : s1 d10                                                                              
   LEXCH  = PE                                                                                      
   EATOM  =  1037.2675 eV,   76.2370 Ry                                                             
                                                                                                    
   TITEL  = PAW_PBE Ag 02Apr2005                                                                    
   LULTRA =        F    use ultrasoft PP ?                                                          
   IUNSCR =        1    unscreen: 0-lin 1-nonlin 2-no                                               
   RPACOR =    2.000    partial core radius                                                         
   POMASS =  107.868; ZVAL   =   11.000    mass and valenz                                          
   RCORE  =    2.500    outmost cutoff radius                                                       
   RWIGS  =    2.840; RWIGS  =    1.503    wigner-seitz radius (au A)                               
   ENMAX  =  249.844; ENMIN  =  187.383 eV                                                          
   ICORE  =        3    local potential                                                             
   LCOR   =        T    correct aug charges                                                         
   LPAW   =        T    paw PP                                                                      
   EAUG   =  412.496                                                                                
   DEXC   =    0.000                                                                                
   RMAX   =    2.560    core radius for proj-oper                                                   
   RAUG   =    1.300    factor for augmentation sphere                                              
   RDEP   =    2.576    radius for radial grids                                                     
   RDEPT  =    2.072    core radius for aug-charge                                                  
                                                                                                    
   Atomic configuration                                                                             
   12 entries                                                                                       
     n  l   j            E        occ.                                                              
     1  0  0.50    -25324.9161   2.0000                                                             
     2  0  0.50     -3728.5341   2.0000                                                             
     2  1  1.50     -3344.0404   6.0000                                                             
     3  0  0.50      -683.5581   2.0000                                                             
     3  1  1.50      -557.3225   6.0000                                                             
     3  2  2.50      -358.3853  10.0000                                                             
     4  0  0.50       -95.0341   2.0000                                                             
     4  1  1.50       -58.5511   6.0000                                                             
     4  2  2.50        -7.4440  10.0000                                                             
     5  0  0.50        -4.4045   1.0000                                                             
     5  1  0.50        -1.3606   0.0000                                                             
     4  3  2.50        -1.3606   0.0000                                                             
   Description                                                                                      
     l       E           TYP  RCUT    TYP  RCUT                                                     
     2     -7.4439781     23  2.400                                                                 
     2     -8.8045607     23  2.400                                                                 
     0     -4.4044681     23  2.400                                                                 
     0      1.9520038     23  2.400                                                                 
     1     -1.3605826     23  2.500                                                                 
     1     27.2116520     23  2.500                                                                 
     3     -4.0817478     23  2.400                                                                 
  local pseudopotential read in
  partial core-charges read in
  partial kinetic energy density read in
  atomic valenz-charges read in
  non local Contribution for L=            2  read in
    real space projection operators read in
  non local Contribution for L=            2  read in
    real space projection operators read in
  non local Contribution for L=            0  read in
    real space projection operators read in
  non local Contribution for L=            0  read in
    real space projection operators read in
  non local Contribution for L=            1  read in
    real space projection operators read in
  non local Contribution for L=            1  read in
    real space projection operators read in
    PAW grid and wavefunctions read in
 
   number of l-projection  operators is LMAX  =            6
   number of lm-projection operators is LMMAX =           18
 
 -----------------------------------------------------------------------------
|                                                                             |
|               ----> ADVICE to this user running VASP <----                  |
|                                                                             |
|     You have a (more or less) 'small supercell' and for smaller cells       |
|     it is recommended to use the reciprocal-space projection scheme!        |
|     The real-space optimization is not efficient for small cells and it     |
|     is also less accurate ...                                               |
|     Therefore, set LREAL=.FALSE. in the INCAR file.                         |
|                                                                             |
 -----------------------------------------------------------------------------

 Optimization of the real space projectors (new method)

 maximal supplied QI-value         = 12.09
 optimisation between [QCUT,QGAM] = [ 11.61, 23.34] = [ 37.75,152.57] Ry 
 Optimized for a Real-space Cutoff    1.89 Angstroem

   l    n(q)    QCUT    max X(q) W(low)/X(q) W(high)/X(q)  e(spline) 
   0     13    11.610    37.655    0.45E-04    0.19E-04    0.34E-06
   0     13    11.610    17.791    0.29E-04    0.15E-04    0.27E-06
   1     13    11.610    36.143    0.15E-04    0.51E-06    0.99E-06
   1     13    11.610    36.445    0.16E-04    0.54E-06    0.10E-05
   2     12    11.610    14.662    0.21E-03    0.42E-03    0.57E-05
   2     12    11.610    15.811    0.17E-03    0.35E-03    0.47E-05
 Optimization of the real space projectors (new method)

 maximal supplied QI-value         = 13.42
 optimisation between [QCUT,QGAM] = [ 11.67, 23.35] = [ 38.16,152.62] Ry 
 Optimized for a Real-space Cutoff    1.63 Angstroem

   l    n(q)    QCUT    max X(q) W(low)/X(q) W(high)/X(q)  e(spline) 
   0     11    11.673    10.501    0.14E-04    0.17E-05    0.21E-07
   0     11    11.673     9.148    0.21E-04    0.32E-05    0.45E-07
   1     11    11.673     4.035    0.33E-05    0.11E-04    0.84E-07
   1     11    11.673     4.388    0.11E-04    0.47E-04    0.34E-06
   2     10    11.673    20.656    0.12E-04    0.28E-04    0.54E-06
   2     10    11.673    12.651    0.11E-04    0.26E-04    0.51E-06
   3     10    11.673    61.921    0.19E-03    0.22E-03    0.23E-06
   3     10    11.673    48.328    0.20E-03    0.23E-03    0.23E-06
 Optimization of the real space projectors (new method)

 maximal supplied QI-value         = 15.12
 optimisation between [QCUT,QGAM] = [ 11.64, 23.28] = [ 37.95,151.78] Ry 
 Optimized for a Real-space Cutoff    1.45 Angstroem

   l    n(q)    QCUT    max X(q) W(low)/X(q) W(high)/X(q)  e(spline) 
   2      9    11.641    53.897    0.22E-03    0.42E-04    0.28E-06
   2      9    11.641    52.416    0.23E-03    0.44E-04    0.29E-06
   0     10    11.641   122.045    0.51E-04    0.25E-04    0.16E-06
   0     10    11.641    73.629    0.49E-04    0.24E-04    0.16E-06
   1     10    11.641    15.255    0.99E-04    0.55E-04    0.11E-06
   1     10    11.641     9.562    0.81E-04    0.47E-04    0.95E-07
  PAW_PBE Yb_2 06Sep2000                :
 energy of atom  1       EATOM= -572.3552
 kinetic energy error for atom=    0.0001 (will be added to EATOM!!)
  PAW_PBE Gd 23Dec2003                  :
 energy of atom  2       EATOM=-3047.6032
 kinetic energy error for atom=    0.0019 (will be added to EATOM!!)
  PAW_PBE Ag 02Apr2005                  :
 energy of atom  3       EATOM=-1037.2675
 kinetic energy error for atom=    0.0047 (will be added to EATOM!!)
 
 
 POSCAR: Yb1 Gd1 Ag2
  positions in direct lattice
  No initial velocities read in
 exchange correlation table for  LEXCH =        8
   RHO(1)=    0.500       N(1)  =     2000
   RHO(2)=  100.500       N(2)  =     4000

 VTST: version 4.2, (08/11/21)

 CHAIN: initializing optimizer
 
 OPT: Using VASP Dynamics algorithm
 CHAIN: Read ICHAIN             0
 
 POSCAR: Yb1 Gd1 Ag2
  positions in direct lattice
  No initial velocities read in
 


--------------------------------------------------------------------------------------------------------


 ion  position               nearest neighbor table
   1  0.000  0.000  0.000-   3 3.17   3 3.17   3 3.17   3 3.17   4 3.17   4 3.17   4 3.17   4 3.17
                             2 3.66   2 3.66   2 3.66   2 3.66   2 3.66   2 3.66
   2  0.500  0.500  0.500-   4 3.17   4 3.17   4 3.17   3 3.17   4 3.17   3 3.17   3 3.17   3 3.17
                             1 3.66   1 3.66   1 3.66   1 3.66   1 3.66   1 3.66
   3  0.750  0.750  0.750-   2 3.17   2 3.17   2 3.17   1 3.17   2 3.17   1 3.17   1 3.17   1 3.17

   4  0.250  0.250  0.250-   1 3.17   1 3.17   1 3.17   1 3.17   2 3.17   2 3.17   2 3.17   2 3.17

 
  LATTYP: Found a face centered cubic cell.
 ALAT       =     7.3234580000
  
  Lattice vectors:
  
 A1 = (   0.0000000000,   3.6617290000,   3.6617290000)
 A2 = (   3.6617290000,   0.0000000000,   3.6617290000)
 A3 = (   3.6617290000,   3.6617290000,   0.0000000000)


Analysis of symmetry for initial positions (statically):
=====================================================================
 Subroutine PRICEL returns:
 Original cell was already a primitive cell.
 

 Routine SETGRP: Setting up the symmetry group for a 
 face centered cubic supercell.


 Subroutine GETGRP returns: Found 48 space group operations
 (whereof 48 operations were pure point group operations)
 out of a pool of 48 trial point group operations.


The static configuration has the point symmetry O_h .


Analysis of symmetry for dynamics (positions and initial velocities):
=====================================================================
 Subroutine PRICEL returns:
 Original cell was already a primitive cell.
 

 Routine SETGRP: Setting up the symmetry group for a 
 face centered cubic supercell.


 Subroutine GETGRP returns: Found 48 space group operations
 (whereof 48 operations were pure point group operations)
 out of a pool of 48 trial point group operations.


The dynamic configuration has the point symmetry O_h .


Analysis of structural, dynamic, and magnetic symmetry:
=====================================================================
 Subroutine PRICEL returns:
 Original cell was already a primitive cell.
 

 Routine SETGRP: Setting up the symmetry group for a 
 face centered cubic supercell.


 Subroutine GETGRP returns: Found 48 space group operations
 (whereof 48 operations were pure point group operations)
 out of a pool of 48 trial point group operations.


The overall configuration has the point symmetry O_h .


 Subroutine INISYM returns: Found 48 space group operations
 (whereof 48 operations are pure point group operations),
 and found     1 'primitive' translations


----------------------------------------------------------------------------------------

                                     Primitive cell                                     

  volume of cell :      98.1948

  direct lattice vectors                    reciprocal lattice vectors
     0.000000000  3.661729000  3.661729000    -0.136547516  0.136547516  0.136547516
     3.661729000  0.000000000  3.661729000     0.136547516 -0.136547516  0.136547516
     3.661729000  3.661729000  0.000000000     0.136547516  0.136547516 -0.136547516

  length of vectors
     5.178466814  5.178466814  5.178466814     0.236507236  0.236507236  0.236507236

  position of ions in fractional coordinates (direct lattice)
     0.000000000  0.000000000  0.000000000
     0.500000000  0.500000000  0.500000000
     0.750000000  0.750000000  0.750000000
     0.250000000  0.250000000  0.250000000

  ion indices of the primitive-cell ions
   primitive index   ion index
                 1           1
                 2           2
                 3           3
                 4           4

----------------------------------------------------------------------------------------

 
 
 KPOINTS: Kpoints from vasprun.xml                

Automatic generation of k-mesh.
 Grid dimensions read from file:
 generate k-points for:    6    6    6

 Generating k-lattice:

  Cartesian coordinates                     Fractional coordinates (reciprocal lattice)
    -0.022757919  0.022757919  0.022757919     0.166666667 -0.000000000 -0.000000000
     0.022757919 -0.022757919  0.022757919    -0.000000000  0.166666667  0.000000000
     0.022757919  0.022757919 -0.022757919     0.000000000  0.000000000  0.166666667

  Length of vectors
     0.039417873  0.039417873  0.039417873

  Shift w.r.t. Gamma in fractional coordinates (k-lattice)
     0.000000000  0.000000000  0.000000000

 TETIRR: Found     35 inequivalent tetrahedra from     1296
 
 Subroutine IBZKPT returns following result:
 ===========================================
 
 Found     16 irreducible k-points:
 
 Following reciprocal coordinates:
            Coordinates               Weight
  0.000000  0.000000  0.000000      1.000000
  0.166667  0.000000  0.000000      8.000000
  0.333333  0.000000  0.000000      8.000000
  0.500000  0.000000  0.000000      4.000000
  0.166667  0.166667  0.000000      6.000000
  0.333333  0.166667  0.000000     24.000000
  0.500000  0.166667  0.000000     24.000000
 -0.333333  0.166667  0.000000     24.000000
 -0.166667  0.166667  0.000000     12.000000
  0.333333  0.333333  0.000000      6.000000
  0.500000  0.333333  0.000000     24.000000
 -0.333333  0.333333  0.000000     12.000000
  0.500000  0.500000  0.000000      3.000000
  0.500000  0.333333  0.166667     24.000000
 -0.333333  0.333333  0.166667     24.000000
 -0.333333  0.500000  0.166667     12.000000
 
 Following cartesian coordinates:
            Coordinates               Weight
  0.000000  0.000000  0.000000      1.000000
 -0.022758  0.022758  0.022758      8.000000
 -0.045516  0.045516  0.045516      8.000000
 -0.068274  0.068274  0.068274      4.000000
  0.000000  0.000000  0.045516      6.000000
 -0.022758  0.022758  0.068274     24.000000
 -0.045516  0.045516  0.091032     24.000000
  0.068274 -0.068274 -0.022758     24.000000
  0.045516 -0.045516  0.000000     12.000000
  0.000000  0.000000  0.091032      6.000000
 -0.022758  0.022758  0.113790     24.000000
  0.091032 -0.091032  0.000000     12.000000
  0.000000  0.000000  0.136548      3.000000
  0.000000  0.045516  0.091032     24.000000
  0.113790 -0.068274 -0.022758     24.000000
  0.136548 -0.091032  0.000000     12.000000
 


--------------------------------------------------------------------------------------------------------




 Dimension of arrays:
   k-points           NKPTS =     16   k-points in BZ     NKDIM =     16   number of bands    NBANDS=     32
   number of dos      NEDOS =    301   number of ions     NIONS =      4
   non local maximal  LDIM  =      8   non local SUM 2l+1 LMDIM =     32
   total plane-waves  NPLWV =  64000
   max r-space proj   IRMAX =  18376   max aug-charges    IRDMAX= 411418
   dimension x,y,z NGX =    40 NGY =   40 NGZ =   40
   dimension x,y,z NGXF=    80 NGYF=   80 NGZF=   80
   support grid    NGXF=   160 NGYF=  160 NGZF=  160
   ions per type =               1   1   2
   NGX,Y,Z   is equivalent  to a cutoff of  12.84, 12.84, 12.84 a.u.
   NGXF,Y,Z  is equivalent  to a cutoff of  25.68, 25.68, 25.68 a.u.

 SYSTEM =  unknown system                          
 POSCAR =  Yb1 Gd1 Ag2                             

 Startparameter for this run:
   NWRITE =      2    write-flag & timer
   PREC   = accura    normal or accurate (medium, high low for compatibility)
   ISTART =      0    job   : 0-new  1-cont  2-samecut
   ICHARG =      0    charge: 1-file 2-atom 10-const
   ISPIN  =      2    spin polarized calculation?
   LNONCOLLINEAR =      F non collinear calculations
   LSORBIT =      F    spin-orbit coupling
   INIWAV =      1    electr: 0-lowe 1-rand  2-diag
   LASPH  =      T    aspherical Exc in radial PAW
 Electronic Relaxation 1
   ENCUT  =  520.0 eV  38.22 Ry    6.18 a.u.   9.63  9.63  9.63*2*pi/ulx,y,z
   ENINI  =  520.0     initial cutoff
   ENAUG  =  537.2 eV  augmentation charge cutoff
   NELM   =   1000;   NELMIN=  2; NELMDL= -5     # of ELM steps 
   EDIFF  = 0.2E-03   stopping-criterion for ELM
   LREAL  =      T    real-space projection
   NLSPLINE    = F    spline interpolate recip. space projectors
   LCOMPAT=      F    compatible to vasp.4.4
   GGA_COMPAT  = T    GGA compatible to vasp.4.4-vasp.4.6
   LMAXPAW     = -100 max onsite density
   LMAXMIX     =    2 max onsite mixed and CHGCAR
   VOSKOWN=      0    Vosko Wilk Nusair interpolation
   ROPT   =   -0.00025  -0.00025  -0.00025
 Ionic relaxation
   EDIFFG = 0.2E-02   stopping-criterion for IOM
   NSW    =      0    number of steps for IOM
   NBLOCK =      1;   KBLOCK =      1    inner block; outer block 
   IBRION =     -1    ionic relax: 0-MD 1-quasi-New 2-CG
   NFREE  =      0    steps in history (QN), initial steepest desc. (CG)
   ISIF   =      3    stress and relaxation
   IWAVPR =     10    prediction:  0-non 1-charg 2-wave 3-comb
   ISYM   =      2    0-nonsym 1-usesym 2-fastsym
   LCORR  =      T    Harris-Foulkes like correction to forces

   POTIM  = 0.5000    time-step for ionic-motion
   TEIN   =    0.0    initial temperature
   TEBEG  =    0.0;   TEEND  =   0.0 temperature during run
   SMASS  =  -3.00    Nose mass-parameter (am)
   estimated Nose-frequenzy (Omega)   =  0.10E-29 period in steps = 0.13E+47 mass=  -0.613E-27a.u.
   SCALEE = 1.0000    scale energy and forces
   NPACO  =    256;   APACO  = 10.0  distance and # of slots for P.C.
   PSTRESS=    0.0 pullay stress

  Mass of Ions in am
   POMASS = 173.04157.25107.87
  Ionic Valenz
   ZVAL   =   8.00 18.00 11.00
  Atomic Wigner-Seitz radii
   RWIGS  =  -1.00 -1.00 -1.00
  virtual crystal weights 
   VCA    =   1.00  1.00  1.00
   NELECT =      48.0000    total number of electrons
   NUPDOWN=      -1.0000    fix difference up-down

 DOS related values:
   EMIN   =  10.00;   EMAX   =-10.00  energy-range for DOS
   EFERMI =   0.00
   ISMEAR =    -5;   SIGMA  =   0.05  broadening in eV -4-tet -1-fermi 0-gaus

 Electronic relaxation 2 (details)
   IALGO  =     38    algorithm
   LDIAG  =      T    sub-space diagonalisation (order eigenvalues)
   LSUBROT=      F    optimize rotation matrix (better conditioning)
   TURBO    =      0    0=normal 1=particle mesh
   IRESTART =      0    0=no restart 2=restart with 2 vectors
   NREBOOT  =      0    no. of reboots
   NMIN     =      0    reboot dimension
   EREF     =   0.00    reference energy to select bands
   IMIX   =      4    mixing-type and parameters
     AMIX     =   0.40;   BMIX     =  1.00
     AMIX_MAG =   1.60;   BMIX_MAG =  1.00
     AMIN     =   0.10
     WC   =   100.;   INIMIX=   1;  MIXPRE=   1;  MAXMIX= -45

 Intra band minimization:
   WEIMIN = 0.0000     energy-eigenvalue tresh-hold
   EBREAK =  0.16E-05  absolut break condition
   DEPER  =   0.30     relativ break condition  

   TIME   =   0.40     timestep for ELM

  volume/ion in A,a.u.               =      24.55       165.66
  Fermi-wavevector in a.u.,A,eV,Ry     =   1.289612  2.437013 22.627835  1.663099
  Thomas-Fermi vector in A             =   2.421494
 
 Write flags
   LWAVE        =      F    write WAVECAR
   LDOWNSAMPLE  =      F    k-point downsampling of WAVECAR
   LCHARG       =      T    write CHGCAR
   LVTOT        =      F    write LOCPOT, total local potential
   LVHAR        =      T    write LOCPOT, Hartree potential only
   LELF         =      T    write electronic localiz. function (ELF)
   LORBIT       =     11    0 simple, 1 ext, 2 COOP (PROOUT), +10 PAW based schemes


 Dipole corrections
   LMONO  =      F    monopole corrections only (constant potential shift)
   LDIPOL =      F    correct potential (dipole corrections)
   IDIPOL =      0    1-x, 2-y, 3-z, 4-all directions 
   EPSILON=  1.0000000 bulk dielectric constant

 Exchange correlation treatment:
   GGA     =    --    GGA type
   LEXCH   =     8    internal setting for exchange type
   LIBXC   =     F    Libxc                    
   VOSKOWN =     0    Vosko Wilk Nusair interpolation
   LHFCALC =     F    Hartree Fock is set to
   LHFONE  =     F    Hartree Fock one center treatment
   AEXX    =    0.0000 exact exchange contribution

 Linear response parameters
   LEPSILON=     F    determine dielectric tensor
   LRPA    =     F    only Hartree local field effects (RPA)
   LNABLA  =     F    use nabla operator in PAW spheres
   LVEL    =     F    velocity operator in full k-point grid
   CSHIFT  =0.1000    complex shift for real part using Kramers Kronig
   OMEGAMAX=  -1.0    maximum frequency
   DEG_THRESHOLD= 0.2000000E-02 threshold for treating states as degnerate
   RTIME   =   -0.100 relaxation time in fs
  (WPLASMAI=    0.000 imaginary part of plasma frequency in eV, 0.658/RTIME)
   DFIELD  = 0.0000000 0.0000000 0.0000000 field for delta impulse in time
 
  Optional k-point grid parameters
   LKPOINTS_OPT  =     F    use optional k-point grid
   KPOINTS_OPT_MODE=     1    mode for optional k-point grid
 
 Orbital magnetization related:
   ORBITALMAG=     F  switch on orbital magnetization
   LCHIMAG   =     F  perturbation theory with respect to B field
   DQ        =  0.001000  dq finite difference perturbation B field
   LLRAUG    =     F  two centre corrections for induced B field



--------------------------------------------------------------------------------------------------------


 Static calculation
 charge density and potential will be updated during run
 spin polarized calculation
 Variant of blocked Davidson
 Davidson routine will perform the subspace rotation
 perform sub-space diagonalisation
    after iterative eigenvector-optimisation
 modified Broyden-mixing scheme, WC =      100.0
 initial mixing is a Kerker type mixing with AMIX =  0.4000 and BMIX =      1.0000
 Hartree-type preconditioning will be used
 using additional bands             8
 real space projection scheme for non local part
 use partial core corrections
 calculate Harris-corrections to forces 
   (improved forces if not selfconsistent)
 use gradient corrections 
 use of overlap-Matrix (Vanderbilt PP)
 Fermi weights with tetrahedron method with Bloechl corrections


--------------------------------------------------------------------------------------------------------


  energy-cutoff  :      520.00
  volume of cell :       98.19
      direct lattice vectors                 reciprocal lattice vectors
     0.000000000  3.661729000  3.661729000    -0.136547516  0.136547516  0.136547516
     3.661729000  0.000000000  3.661729000     0.136547516 -0.136547516  0.136547516
     3.661729000  3.661729000  0.000000000     0.136547516  0.136547516 -0.136547516

  length of vectors
     5.178466814  5.178466814  5.178466814     0.236507236  0.236507236  0.236507236


 
 k-points in units of 2pi/SCALE and weight: Kpoints from vasprun.xml                
   0.00000000  0.00000000  0.00000000       0.005
  -0.02275792  0.02275792  0.02275792       0.037
  -0.04551584  0.04551584  0.04551584       0.037
  -0.06827376  0.06827376  0.06827376       0.019
   0.00000000  0.00000000  0.04551584       0.028
  -0.02275792  0.02275792  0.06827376       0.111
  -0.04551584  0.04551584  0.09103168       0.111
   0.06827376 -0.06827376 -0.02275792       0.111
   0.04551584 -0.04551584  0.00000000       0.056
   0.00000000  0.00000000  0.09103168       0.028
  -0.02275792  0.02275792  0.11378960       0.111
   0.09103168 -0.09103168  0.00000000       0.056
   0.00000000  0.00000000  0.13654752       0.014
   0.00000000  0.04551584  0.09103168       0.111
   0.11378960 -0.06827376 -0.02275792       0.111
   0.13654752 -0.09103168  0.00000000       0.056
 
 k-points in reciprocal lattice and weights: Kpoints from vasprun.xml                
   0.00000000  0.00000000  0.00000000       0.005
   0.16666667  0.00000000  0.00000000       0.037
   0.33333333  0.00000000  0.00000000       0.037
   0.50000000  0.00000000  0.00000000       0.019
   0.16666667  0.16666667  0.00000000       0.028
   0.33333333  0.16666667  0.00000000       0.111
   0.50000000  0.16666667  0.00000000       0.111
  -0.33333333  0.16666667  0.00000000       0.111
  -0.16666667  0.16666667  0.00000000       0.056
   0.33333333  0.33333333  0.00000000       0.028
   0.50000000  0.33333333  0.00000000       0.111
  -0.33333333  0.33333333  0.00000000       0.056
   0.50000000  0.50000000  0.00000000       0.014
   0.50000000  0.33333333  0.16666667       0.111
  -0.33333333  0.33333333  0.16666667       0.111
  -0.33333333  0.50000000  0.16666667       0.056
 
 position of ions in fractional coordinates (direct lattice) 
   0.00000000  0.00000000  0.00000000
   0.50000000  0.50000000  0.50000000
   0.75000000  0.75000000  0.75000000
   0.25000000  0.25000000  0.25000000
 
 position of ions in cartesian coordinates  (Angst):
   0.00000000  0.00000000  0.00000000
   3.66172900  3.66172900  3.66172900
   5.49259350  5.49259350  5.49259350
   1.83086450  1.83086450  1.83086450
 


--------------------------------------------------------------------------------------------------------


 k-point   1 :   0.0000 0.0000 0.0000  plane waves:    2685
 k-point   2 :   0.1667 0.0000 0.0000  plane waves:    2659
 k-point   3 :   0.3333 0.0000 0.0000  plane waves:    2659
 k-point   4 :   0.5000 0.0000 0.0000  plane waves:    2638
 k-point   5 :   0.1667 0.1667 0.0000  plane waves:    2649
 k-point   6 :   0.3333 0.1667 0.0000  plane waves:    2645
 k-point   7 :   0.5000 0.1667 0.0000  plane waves:    2642
 k-point   8 :  -0.3333 0.1667 0.0000  plane waves:    2639
 k-point   9 :  -0.1667 0.1667 0.0000  plane waves:    2643
 k-point  10 :   0.3333 0.3333 0.0000  plane waves:    2626
 k-point  11 :   0.5000 0.3333 0.0000  plane waves:    2633
 k-point  12 :  -0.3333 0.3333 0.0000  plane waves:    2644
 k-point  13 :   0.5000 0.5000 0.0000  plane waves:    2650
 k-point  14 :   0.5000 0.3333 0.1667  plane waves:    2644
 k-point  15 :  -0.3333 0.3333 0.1667  plane waves:    2638
 k-point  16 :  -0.3333 0.5000 0.1667  plane waves:    2636

 maximum and minimum number of plane-waves per node :      2685     2626

 maximum number of plane-waves:      2685
 maximum index in each direction: 
   IXMAX=    9   IYMAX=    9   IZMAX=    9
   IXMIN=  -10   IYMIN=  -10   IZMIN=   -9


 serial   3D FFT for wavefunctions
 parallel 3D FFT for charge:
    minimum data exchange during FFTs selected (reduces bandwidth)


 total amount of memory used by VASP MPI-rank0    87412. kBytes
=======================================================================

   base      :      30000. kBytes
   nonlr-proj:       9831. kBytes
   fftplans  :      19153. kBytes
   grid      :      16665. kBytes
   one-center:        393. kBytes
   wavefun   :      11370. kBytes
 
     INWAV:  cpu time      0.0001: real time      0.0003
 Broyden mixing: mesh for mixing (old mesh)
   NGX = 19   NGY = 19   NGZ = 19
  (NGX  = 80   NGY  = 80   NGZ  = 80)
  gives a total of   6859 points

 charge density for first step will be calculated from the start-wavefunctions


--------------------------------------------------------------------------------------------------------


 Maximum index for non-local projection operator         17861
 Maximum index for augmentation-charges         99909 (set IRDMAX)


--------------------------------------------------------------------------------------------------------


 initial charge from wavefunction
 First call to EWALD:  gamma=   0.384
 Maximum number of real-space cells 3x 3x 3
 Maximum number of reciprocal cells 3x 3x 3

    FEWALD:  cpu time      0.0005: real time      0.0005


--------------------------------------- Iteration      1(   1)  ---------------------------------------


    POTLOK:  cpu time      0.1415: real time      0.1939
    SETDIJ:  cpu time      1.0094: real time      1.0099
     EDDAV:  cpu time      1.2925: real time      1.2950
 BZINTS: Fermi energy:    5.069099;   48.000000 electrons
         Band energy:-0.286523E+04;  BLOECHL correction:   -0.391920
       DOS:  cpu time      0.0116: real time      0.0116
    --------------------------------------------
      LOOP:  cpu time      2.4550: real time      2.5104

 eigenvalue-minimisations  :  3176
 total energy-change (2. order) :-0.1374722E+04  (-0.4223778E+04)
 number of electron      48.0000000 magnetization       0.0000000
 augmentation part        4.9758679 magnetization       0.0971078

 Free energy of the ion-electron system (eV)
  ---------------------------------------------------
  alpha Z        PSCENC =       310.22726681
  Ewald energy   TEWEN  =     -4309.47723045
  -Hartree energ DENC   =      -220.01864680
  -exchange      EXHF   =         0.00000000
  -V(xc)+E(xc)   XCENC  =        27.55856468
  PAW double counting   =     88305.24985830   -88317.51171780
  entropy T*S    EENTRO =         0.00000000
  eigenvalues    EBANDS =     -2865.23174787
  atomic energy  EATOM  =      5694.48197424
  Solvation  Ediel_sol  =         0.00000000
  ---------------------------------------------------
  free energy    TOTEN  =     -1374.72167888 eV

  energy without entropy =    -1374.72167888  energy(sigma->0) =    -1374.72167888


--------------------------------------------------------------------------------------------------------




--------------------------------------- Iteration      1(   2)  ---------------------------------------


     EDDAV:  cpu time      1.0942: real time      1.0956
 BZINTS: Fermi energy:  -31.661442;   48.000000 electrons
         Band energy:-0.354849E+04;  BLOECHL correction:   -0.451774
       DOS:  cpu time      0.0117: real time      0.0117
    --------------------------------------------
      LOOP:  cpu time      1.1060: real time      1.1074

 eigenvalue-minimisations  :  2664
 total energy-change (2. order) :-0.6832611E+03  (-0.6433475E+03)
 number of electron      48.0000000 magnetization       0.0000000
 augmentation part        4.9758679 magnetization       0.0971078

 Free energy of the ion-electron system (eV)
  ---------------------------------------------------
  alpha Z        PSCENC =       310.22726681
  Ewald energy   TEWEN  =     -4309.47723045
  -Hartree energ DENC   =      -220.01864680
  -exchange      EXHF   =         0.00000000
  -V(xc)+E(xc)   XCENC  =        27.55856468
  PAW double counting   =     88305.24985830   -88317.51171780
  entropy T*S    EENTRO =         0.00000000
  eigenvalues    EBANDS =     -3548.49284646
  atomic energy  EATOM  =      5694.48197424
  Solvation  Ediel_sol  =         0.00000000
  ---------------------------------------------------
  free energy    TOTEN  =     -2057.98277747 eV

  energy without entropy =    -2057.98277747  energy(sigma->0) =    -2057.98277747


--------------------------------------------------------------------------------------------------------




--------------------------------------- Iteration      1(   3)  ---------------------------------------


     EDDAV:  cpu time      1.3089: real time      1.3102
 BZINTS: Fermi energy:  -37.200471;   48.000000 electrons
         Band energy:-0.370614E+04;  BLOECHL correction:   -0.019236
       DOS:  cpu time      0.0087: real time      0.0087
    --------------------------------------------
      LOOP:  cpu time      1.3176: real time      1.3188

 eigenvalue-minimisations  :  3312
 total energy-change (2. order) :-0.1576500E+03  (-0.1370441E+03)
 number of electron      48.0000000 magnetization       0.0000000
 augmentation part        4.9758679 magnetization       0.0971078

 Free energy of the ion-electron system (eV)
  ---------------------------------------------------
  alpha Z        PSCENC =       310.22726681
  Ewald energy   TEWEN  =     -4309.47723045
  -Hartree energ DENC   =      -220.01864680
  -exchange      EXHF   =         0.00000000
  -V(xc)+E(xc)   XCENC  =        27.55856468
  PAW double counting   =     88305.24985830   -88317.51171780
  entropy T*S    EENTRO =         0.00000000
  eigenvalues    EBANDS =     -3706.14285715
  atomic energy  EATOM  =      5694.48197424
  Solvation  Ediel_sol  =         0.00000000
  ---------------------------------------------------
  free energy    TOTEN  =     -2215.63278816 eV

  energy without entropy =    -2215.63278816  energy(sigma->0) =    -2215.63278816


--------------------------------------------------------------------------------------------------------




--------------------------------------- Iteration      1(   4)  ---------------------------------------


     EDDAV:  cpu time      1.2582: real time      1.2597
 BZINTS: Fermi energy:  -37.337985;   48.000000 electrons
         Band energy:-0.372492E+04;  BLOECHL correction:   -0.006330
       DOS:  cpu time      0.0098: real time      0.0098
    --------------------------------------------
      LOOP:  cpu time      1.2680: real time      1.2696

 eigenvalue-minimisations  :  3152
 total energy-change (2. order) :-0.1877719E+02  (-0.1805887E+02)
 number of electron      48.0000000 magnetization       0.0000000
 augmentation part        4.9758679 magnetization       0.0971078

 Free energy of the ion-electron system (eV)
  ---------------------------------------------------
  alpha Z        PSCENC =       310.22726681
  Ewald energy   TEWEN  =     -4309.47723045
  -Hartree energ DENC   =      -220.01864680
  -exchange      EXHF   =         0.00000000
  -V(xc)+E(xc)   XCENC  =        27.55856468
  PAW double counting   =     88305.24985830   -88317.51171780
  entropy T*S    EENTRO =         0.00000000
  eigenvalues    EBANDS =     -3724.92004709
  atomic energy  EATOM  =      5694.48197424
  Solvation  Ediel_sol  =         0.00000000
  ---------------------------------------------------
  free energy    TOTEN  =     -2234.40997811 eV

  energy without entropy =    -2234.40997811  energy(sigma->0) =    -2234.40997811


--------------------------------------------------------------------------------------------------------




--------------------------------------- Iteration      1(   5)  ---------------------------------------


     EDDAV:  cpu time      1.3764: real time      1.3776
 BZINTS: Fermi energy:  -37.346623;   48.000000 electrons
         Band energy:-0.373435E+04;  BLOECHL correction:   -0.002392
       DOS:  cpu time      0.0084: real time      0.0084
    CHARGE:  cpu time      0.1204: real time      0.1207
    MIXING:  cpu time      0.0013: real time      0.0013
    --------------------------------------------
      LOOP:  cpu time      1.5064: real time      1.5080

 eigenvalue-minimisations  :  3512
 total energy-change (2. order) :-0.9430208E+01  (-0.6528510E+01)
 number of electron      48.0000001 magnetization      -0.0000826
 augmentation part       13.0205835 magnetization       0.1278335

 Broyden mixing:
  rms(total) = 0.40584E+03    rms(broyden)= 0.40584E+03
  rms(prec ) = 0.40928E+03
  weight for this iteration     100.00

 Free energy of the ion-electron system (eV)
  ---------------------------------------------------
  alpha Z        PSCENC =       310.22726681
  Ewald energy   TEWEN  =     -4309.47723045
  -Hartree energ DENC   =      -220.01864680
  -exchange      EXHF   =         0.00000000
  -V(xc)+E(xc)   XCENC  =        27.55856468
  PAW double counting   =     88305.24985830   -88317.51171780
  entropy T*S    EENTRO =         0.00000000
  eigenvalues    EBANDS =     -3734.35025472
  atomic energy  EATOM  =      5694.48197424
  Solvation  Ediel_sol  =         0.00000000
  ---------------------------------------------------
  free energy    TOTEN  =     -2243.84018573 eV

  energy without entropy =    -2243.84018573  energy(sigma->0) =    -2243.84018573


--------------------------------------------------------------------------------------------------------




--------------------------------------- Iteration      1(   6)  ---------------------------------------


    POTLOK:  cpu time      0.0072: real time      0.0079
    SETDIJ:  cpu time      1.0056: real time      1.0060
     EDDAV:  cpu time      1.1735: real time      1.1741
 BZINTS: Fermi energy:    6.017078;   48.000000 electrons
         Band energy:-0.648500E+03;  BLOECHL correction:   -0.179758
       DOS:  cpu time      0.0115: real time      0.0115
    CHARGE:  cpu time      0.1166: real time      0.1166
    MIXING:  cpu time      0.0016: real time      0.0067
    --------------------------------------------
      LOOP:  cpu time      2.3160: real time      2.3229

 eigenvalue-minimisations  :  2888
 total energy-change (2. order) : 0.2043004E+04  (-0.6412560E+03)
 number of electron      48.0000001 magnetization       0.0743924
 augmentation part       14.0888691 magnetization       0.0007372

 Broyden mixing:
  rms(total) = 0.15710E+03    rms(broyden)= 0.15710E+03
  rms(prec ) = 0.15806E+03
  weight for this iteration     100.00

 eigenvalues of (default mixing * dielectric matrix)
  average eigenvalue GAMMA=   0.7212
  0.7212

 Free energy of the ion-electron system (eV)
  ---------------------------------------------------
  alpha Z        PSCENC =       310.22726681
  Ewald energy   TEWEN  =     -4309.47723045
  -Hartree energ DENC   =     -1288.19498637
  -exchange      EXHF   =         0.00000000
  -V(xc)+E(xc)   XCENC  =        62.82432413
  PAW double counting   =  12280544.67910014-12280566.87650719
  entropy T*S    EENTRO =         0.00000000
  eigenvalues    EBANDS =      -648.49991013
  atomic energy  EATOM  =      5694.48197424
  Solvation  Ediel_sol  =         0.00000000
  ---------------------------------------------------
  free energy    TOTEN  =      -200.83596883 eV

  energy without entropy =     -200.83596883  energy(sigma->0) =     -200.83596883


--------------------------------------------------------------------------------------------------------




--------------------------------------- Iteration      1(   7)  ---------------------------------------


    POTLOK:  cpu time      0.0075: real time      0.0078
    SETDIJ:  cpu time      1.0024: real time      1.0028
     EDDAV:  cpu time      1.1926: real time      1.1932
 BZINTS: Fermi energy:   -1.929409;   48.000000 electrons
         Band energy:-0.863568E+03;  BLOECHL correction:   -0.768775
       DOS:  cpu time      0.0126: real time      0.0126
    CHARGE:  cpu time      0.1165: real time      0.1165
    MIXING:  cpu time      0.0013: real time      0.0013
    --------------------------------------------
      LOOP:  cpu time      2.3329: real time      2.3342

 eigenvalue-minimisations  :  2968
 total energy-change (2. order) :-0.1109728E+02  (-0.1849469E+03)
 number of electron      48.0000002 magnetization       0.0616774
 augmentation part       29.1124216 magnetization      -0.1067188

 Broyden mixing:
  rms(total) = 0.12697E+03    rms(broyden)= 0.12697E+03
  rms(prec ) = 0.12814E+03
  weight for this iteration     100.00

 eigenvalues of (default mixing * dielectric matrix)
  average eigenvalue GAMMA=   0.4741
  0.5908  0.3574

 Free energy of the ion-electron system (eV)
  ---------------------------------------------------
  alpha Z        PSCENC =       310.22726681
  Ewald energy   TEWEN  =     -4309.47723045
  -Hartree energ DENC   =     -1137.29506930
  -exchange      EXHF   =         0.00000000
  -V(xc)+E(xc)   XCENC  =        52.83632889
  PAW double counting   =   6721431.79027629 -6721390.92906212
  entropy T*S    EENTRO =         0.00000000
  eigenvalues    EBANDS =      -863.56772936
  atomic energy  EATOM  =      5694.48197424
  Solvation  Ediel_sol  =         0.00000000
  ---------------------------------------------------
  free energy    TOTEN  =      -211.93324500 eV

  energy without entropy =     -211.93324500  energy(sigma->0) =     -211.93324500


--------------------------------------------------------------------------------------------------------




--------------------------------------- Iteration      1(   8)  ---------------------------------------


    POTLOK:  cpu time      0.0073: real time      0.0080
    SETDIJ:  cpu time      1.0009: real time      1.0014
     EDDAV:  cpu time      1.0600: real time      1.0606
 BZINTS: Fermi energy:   -7.642460;   48.000000 electrons
         Band energy:-0.696980E+03;  BLOECHL correction:    0.000000
       DOS:  cpu time      0.0046: real time      0.0046
    CHARGE:  cpu time      0.1144: real time      0.1144
    MIXING:  cpu time      0.0014: real time      0.0014
    --------------------------------------------
      LOOP:  cpu time      2.1885: real time      2.1904

 eigenvalue-minimisations  :  2536
 total energy-change (2. order) : 0.6379438E+02  (-0.3365204E+02)
 number of electron      48.0000002 magnetization       0.1191169
 augmentation part       30.1070972 magnetization       0.1252805

 Broyden mixing:
  rms(total) = 0.12312E+03    rms(broyden)= 0.12312E+03
  rms(prec ) = 0.12405E+03
  weight for this iteration     100.00

 eigenvalues of (default mixing * dielectric matrix)
  average eigenvalue GAMMA=   0.4449
  0.6148  0.4440  0.2759

 Free energy of the ion-electron system (eV)
  ---------------------------------------------------
  alpha Z        PSCENC =       310.22726681
  Ewald energy   TEWEN  =     -4309.47723045
  -Hartree energ DENC   =     -1206.61122805
  -exchange      EXHF   =         0.00000000
  -V(xc)+E(xc)   XCENC  =        54.84372905
  PAW double counting   =   6172425.98869810 -6172420.61188473
  entropy T*S    EENTRO =         0.00000000
  eigenvalues    EBANDS =      -696.98018909
  atomic energy  EATOM  =      5694.48197424
  Solvation  Ediel_sol  =         0.00000000
  ---------------------------------------------------
  free energy    TOTEN  =      -148.13886412 eV

  energy without entropy =     -148.13886412  energy(sigma->0) =     -148.13886412


--------------------------------------------------------------------------------------------------------




--------------------------------------- Iteration      1(   9)  ---------------------------------------


    POTLOK:  cpu time      0.0070: real time      0.0078
    SETDIJ:  cpu time      1.0096: real time      1.0103
     EDDAV:  cpu time      0.9700: real time      0.9710
 BZINTS: Fermi energy:  -15.344582;   48.000000 electrons
         Band energy:-0.118975E+04;  BLOECHL correction:    0.000000
       DOS:  cpu time      0.0045: real time      0.0046
    CHARGE:  cpu time      0.1146: real time      0.1147
    MIXING:  cpu time      0.0014: real time      0.0014
    --------------------------------------------
      LOOP:  cpu time      2.1071: real time      2.1097

 eigenvalue-minimisations  :  2264
 total energy-change (2. order) :-0.2274386E+03  (-0.1068070E+02)
 number of electron      48.0000002 magnetization       0.0628196
 augmentation part       30.9163776 magnetization       0.0535107

 Broyden mixing:
  rms(total) = 0.14219E+03    rms(broyden)= 0.14219E+03
  rms(prec ) = 0.14336E+03
  weight for this iteration     100.00

 eigenvalues of (default mixing * dielectric matrix)
  average eigenvalue GAMMA=   0.7443
  0.8927  0.8927  0.6950  0.4969

 Free energy of the ion-electron system (eV)
  ---------------------------------------------------
  alpha Z        PSCENC =       310.22726681
  Ewald energy   TEWEN  =     -4309.47723045
  -Hartree energ DENC   =     -1003.78820019
  -exchange      EXHF   =         0.00000000
  -V(xc)+E(xc)   XCENC  =        49.38806105
  PAW double counting   =   8196258.67306356 -8196185.33020934
  entropy T*S    EENTRO =         0.00000000
  eigenvalues    EBANDS =     -1189.75219743
  atomic energy  EATOM  =      5694.48197424
  Solvation  Ediel_sol  =         0.00000000
  ---------------------------------------------------
  free energy    TOTEN  =      -375.57747175 eV

  energy without entropy =     -375.57747175  energy(sigma->0) =     -375.57747175


--------------------------------------------------------------------------------------------------------




--------------------------------------- Iteration      1(  10)  ---------------------------------------


    POTLOK:  cpu time      0.0069: real time      0.0078
    SETDIJ:  cpu time      1.0063: real time      1.0067
     EDDAV:  cpu time      1.2466: real time      1.2475
 BZINTS: Fermi energy:    9.256525;   48.000000 electrons
         Band energy:-0.139999E+03;  BLOECHL correction:   -0.209422
       DOS:  cpu time      0.0110: real time      0.0111
    CHARGE:  cpu time      0.1165: real time      0.1166
    MIXING:  cpu time      0.0014: real time      0.0014
    --------------------------------------------
      LOOP:  cpu time      2.3888: real time      2.3912

 eigenvalue-minimisations  :  3136
 total energy-change (2. order) : 0.8590881E+02  (-0.4824897E+03)
 number of electron      48.0000001 magnetization      -0.2946378
 augmentation part       13.9570817 magnetization       0.0716336

 Broyden mixing:
  rms(total) = 0.68084E+02    rms(broyden)= 0.68084E+02
  rms(prec ) = 0.70760E+02
  weight for this iteration     100.00

 eigenvalues of (default mixing * dielectric matrix)
  average eigenvalue GAMMA=   0.8284
  1.1973  1.1973  0.6366  0.6366  0.4744

 Free energy of the ion-electron system (eV)
  ---------------------------------------------------
  alpha Z        PSCENC =       310.22726681
  Ewald energy   TEWEN  =     -4309.47723045
  -Hartree energ DENC   =     -1731.49480834
  -exchange      EXHF   =         0.00000000
  -V(xc)+E(xc)   XCENC  =        70.34629442
  PAW double counting   =   1928762.01932566 -1928945.77229489
  entropy T*S    EENTRO =         0.00000000
  eigenvalues    EBANDS =      -139.99918855
  atomic energy  EATOM  =      5694.48197424
  Solvation  Ediel_sol  =         0.00000000
  ---------------------------------------------------
  free energy    TOTEN  =      -289.66866110 eV

  energy without entropy =     -289.66866110  energy(sigma->0) =     -289.66866110


--------------------------------------------------------------------------------------------------------




--------------------------------------- Iteration      1(  11)  ---------------------------------------


    POTLOK:  cpu time      0.0069: real time      0.0078
    SETDIJ:  cpu time      0.9969: real time      0.9975
     EDDAV:  cpu time      1.2662: real time      1.2670
 BZINTS: Fermi energy:    7.347301;   48.000000 electrons
         Band energy:-0.216399E+03;  BLOECHL correction:   -0.114711
       DOS:  cpu time      0.0095: real time      0.0095
    CHARGE:  cpu time      0.1164: real time      0.1165
    MIXING:  cpu time      0.0014: real time      0.0014
    --------------------------------------------
      LOOP:  cpu time      2.3973: real time      2.3996

 eigenvalue-minimisations  :  3200
 total energy-change (2. order) : 0.1770731E+03  (-0.1343952E+02)
 number of electron      48.0000001 magnetization       0.1001413
 augmentation part       14.7813724 magnetization       0.3387574

 Broyden mixing:
  rms(total) = 0.55355E+02    rms(broyden)= 0.55355E+02
  rms(prec ) = 0.57516E+02
  weight for this iteration     100.00

 eigenvalues of (default mixing * dielectric matrix)
  average eigenvalue GAMMA=   0.9843
  1.4278  1.4278  0.9587  0.9587  0.6797  0.4532

 Free energy of the ion-electron system (eV)
  ---------------------------------------------------
  alpha Z        PSCENC =       310.22726681
  Ewald energy   TEWEN  =     -4309.47723045
  -Hartree energ DENC   =     -1509.63065456
  -exchange      EXHF   =         0.00000000
  -V(xc)+E(xc)   XCENC  =        62.48515317
  PAW double counting   =   1277707.32951283 -1277851.61304086
  entropy T*S    EENTRO =         0.00000000
  eigenvalues    EBANDS =      -216.39856469
  atomic energy  EATOM  =      5694.48197424
  Solvation  Ediel_sol  =         0.00000000
  ---------------------------------------------------
  free energy    TOTEN  =      -112.59558352 eV

  energy without entropy =     -112.59558352  energy(sigma->0) =     -112.59558352


--------------------------------------------------------------------------------------------------------




--------------------------------------- Iteration      1(  12)  ---------------------------------------


    POTLOK:  cpu time      0.0068: real time      0.0080
    SETDIJ:  cpu time      0.9945: real time      0.9948
     EDDAV:  cpu time      1.4124: real time      1.4130
 BZINTS: Fermi energy:   -1.840466;   48.000000 electrons
         Band energy:-0.109272E+04;  BLOECHL correction:   -0.016570
       DOS:  cpu time      0.0103: real time      0.0103
    CHARGE:  cpu time      0.1165: real time      0.1166
    MIXING:  cpu time      0.0015: real time      0.0015
    --------------------------------------------
      LOOP:  cpu time      2.5420: real time      2.5442

 eigenvalue-minimisations  :  3640
 total energy-change (2. order) :-0.2897941E+03  (-0.6529644E+03)
 number of electron      48.0000001 magnetization      -0.2486521
 augmentation part       24.2732275 magnetization      -0.0528862

 Broyden mixing:
  rms(total) = 0.27387E+02    rms(broyden)= 0.27387E+02
  rms(prec ) = 0.39671E+02
  weight for this iteration     100.00

 eigenvalues of (default mixing * dielectric matrix)
  average eigenvalue GAMMA=   1.0035
  1.0651  1.0651  1.6014  1.6014  0.8630  0.4142  0.4142

 Free energy of the ion-electron system (eV)
  ---------------------------------------------------
  alpha Z        PSCENC =       310.22726681
  Ewald energy   TEWEN  =     -4309.47723045
  -Hartree energ DENC   =     -1048.80828921
  -exchange      EXHF   =         0.00000000
  -V(xc)+E(xc)   XCENC  =        45.70578965
  PAW double counting   =    298938.93901511  -298940.74293486
  entropy T*S    EENTRO =         0.00000000
  eigenvalues    EBANDS =     -1092.71526523
  atomic energy  EATOM  =      5694.48197424
  Solvation  Ediel_sol  =         0.00000000
  ---------------------------------------------------
  free energy    TOTEN  =      -402.38967394 eV

  energy without entropy =     -402.38967394  energy(sigma->0) =     -402.38967394


--------------------------------------------------------------------------------------------------------




--------------------------------------- Iteration      1(  13)  ---------------------------------------


    POTLOK:  cpu time      0.0069: real time      0.0079
    SETDIJ:  cpu time      0.9972: real time      0.9975
     EDDAV:  cpu time      1.0386: real time      1.0391
 BZINTS: Fermi energy:   -2.848146;   48.000000 electrons
         Band energy:-0.945602E+03;  BLOECHL correction:   -0.000000
       DOS:  cpu time      0.0048: real time      0.0048
    CHARGE:  cpu time      0.1138: real time      0.1138
    MIXING:  cpu time      0.0016: real time      0.0016
    --------------------------------------------
      LOOP:  cpu time      2.1627: real time      2.1647

 eigenvalue-minimisations  :  2488
 total energy-change (2. order) : 0.7911186E+02  (-0.3038103E+02)
 number of electron      48.0000003 magnetization      -0.2053472
 augmentation part       27.7428515 magnetization      -0.0383564

 Broyden mixing:
  rms(total) = 0.92365E+01    rms(broyden)= 0.92364E+01
  rms(prec ) = 0.20978E+02
  weight for this iteration     100.00

 eigenvalues of (default mixing * dielectric matrix)
  average eigenvalue GAMMA=   0.9619
  2.5263  0.9725  0.9725  0.9920  0.9920  0.4260  0.4260  0.3875

 Free energy of the ion-electron system (eV)
  ---------------------------------------------------
  alpha Z        PSCENC =       310.22726681
  Ewald energy   TEWEN  =     -4309.47723045
  -Hartree energ DENC   =     -1108.08076760
  -exchange      EXHF   =         0.00000000
  -V(xc)+E(xc)   XCENC  =        48.10330971
  PAW double counting   =     12430.73720070   -12443.66722407
  entropy T*S    EENTRO =         0.00000000
  eigenvalues    EBANDS =      -945.60234213
  atomic energy  EATOM  =      5694.48197424
  Solvation  Ediel_sol  =         0.00000000
  ---------------------------------------------------
  free energy    TOTEN  =      -323.27781280 eV

  energy without entropy =     -323.27781280  energy(sigma->0) =     -323.27781280


--------------------------------------------------------------------------------------------------------




--------------------------------------- Iteration      1(  14)  ---------------------------------------


    POTLOK:  cpu time      0.0071: real time      0.0080
    SETDIJ:  cpu time      1.0003: real time      1.0008
     EDDAV:  cpu time      1.0149: real time      1.0159
 BZINTS: Fermi energy:    0.682037;   48.000000 electrons
         Band energy:-0.424977E+03;  BLOECHL correction:   -0.019994
       DOS:  cpu time      0.0086: real time      0.0086
    CHARGE:  cpu time      0.1153: real time      0.1154
    MIXING:  cpu time      0.0016: real time      0.0016
    --------------------------------------------
      LOOP:  cpu time      2.1478: real time      2.1502

 eigenvalue-minimisations  :  2416
 total energy-change (2. order) : 0.2271813E+03  (-0.1493169E+02)
 number of electron      48.0000000 magnetization      -0.0821231
 augmentation part       25.8687039 magnetization      -0.0017598

 Broyden mixing:
  rms(total) = 0.79603E+01    rms(broyden)= 0.79603E+01
  rms(prec ) = 0.17053E+02
  weight for this iteration     100.00

 eigenvalues of (default mixing * dielectric matrix)
  average eigenvalue GAMMA=   0.8674
  1.6504  1.6504  0.8956  0.8956  0.8563  0.5547  0.5547  0.4021  0.3467

 Free energy of the ion-electron system (eV)
  ---------------------------------------------------
  alpha Z        PSCENC =       310.22726681
  Ewald energy   TEWEN  =     -4309.47723045
  -Hartree energ DENC   =     -1342.95797925
  -exchange      EXHF   =         0.00000000
  -V(xc)+E(xc)   XCENC  =        56.86571012
  PAW double counting   =      6734.68997504    -6814.94904364
  entropy T*S    EENTRO =         0.00000000
  eigenvalues    EBANDS =      -424.97717825
  atomic energy  EATOM  =      5694.48197424
  Solvation  Ediel_sol  =         0.00000000
  ---------------------------------------------------
  free energy    TOTEN  =       -96.09650538 eV

  energy without entropy =      -96.09650538  energy(sigma->0) =      -96.09650538


--------------------------------------------------------------------------------------------------------




--------------------------------------- Iteration      1(  15)  ---------------------------------------


    POTLOK:  cpu time      0.0068: real time      0.0077
    SETDIJ:  cpu time      1.0006: real time      1.0010
     EDDAV:  cpu time      1.0912: real time      1.0924
 BZINTS: Fermi energy:   -0.692531;   48.000000 electrons
         Band energy:-0.450662E+03;  BLOECHL correction:   -0.005770
       DOS:  cpu time      0.0082: real time      0.0082
    CHARGE:  cpu time      0.1151: real time      0.1152
    MIXING:  cpu time      0.0016: real time      0.0016
    --------------------------------------------
      LOOP:  cpu time      2.2234: real time      2.2261

 eigenvalue-minimisations  :  2656
 total energy-change (2. order) : 0.4262356E+01  (-0.9237147E+00)
 number of electron      48.0000002 magnetization       0.0321922
 augmentation part       27.3819165 magnetization       0.0623678

 Broyden mixing:
  rms(total) = 0.64901E+01    rms(broyden)= 0.64901E+01
  rms(prec ) = 0.15633E+02
  weight for this iteration     100.00

 eigenvalues of (default mixing * dielectric matrix)
  average eigenvalue GAMMA=   0.8899
  2.0287  0.8553  0.8553  1.3480  0.9255  0.9255  0.8503  0.3980  0.3562  0.3562

 Free energy of the ion-electron system (eV)
  ---------------------------------------------------
  alpha Z        PSCENC =       310.22726681
  Ewald energy   TEWEN  =     -4309.47723045
  -Hartree energ DENC   =     -1312.71721930
  -exchange      EXHF   =         0.00000000
  -V(xc)+E(xc)   XCENC  =        55.57031177
  PAW double counting   =     10987.49641868   -11066.75371845
  entropy T*S    EENTRO =         0.00000000
  eigenvalues    EBANDS =      -450.66195234
  atomic energy  EATOM  =      5694.48197424
  Solvation  Ediel_sol  =         0.00000000
  ---------------------------------------------------
  free energy    TOTEN  =       -91.83414905 eV

  energy without entropy =      -91.83414905  energy(sigma->0) =      -91.83414905


--------------------------------------------------------------------------------------------------------




--------------------------------------- Iteration      1(  16)  ---------------------------------------


    POTLOK:  cpu time      0.0069: real time      0.0081
    SETDIJ:  cpu time      1.0088: real time      1.0095
     EDDAV:  cpu time      1.0668: real time      1.0677
 BZINTS: Fermi energy:    3.106240;   48.000000 electrons
         Band energy:-0.246683E+03;  BLOECHL correction:   -0.002617
       DOS:  cpu time      0.0096: real time      0.0096
    CHARGE:  cpu time      0.1145: real time      0.1145
    MIXING:  cpu time      0.0019: real time      0.0019
    --------------------------------------------
      LOOP:  cpu time      2.2085: real time      2.2113

 eigenvalue-minimisations  :  2584
 total energy-change (2. order) : 0.7484863E+02  (-0.4585379E+01)
 number of electron      48.0000001 magnetization      -0.0940054
 augmentation part       22.7108033 magnetization       0.1320662

 Broyden mixing:
  rms(total) = 0.29926E+01    rms(broyden)= 0.29926E+01
  rms(prec ) = 0.55791E+01
  weight for this iteration     100.00

 eigenvalues of (default mixing * dielectric matrix)
  average eigenvalue GAMMA=   0.8122
  2.0264  0.8580  0.8580  1.3501  0.9337  0.9337  0.8478  0.3991  0.3561  0.3561
  0.0148

 Free energy of the ion-electron system (eV)
  ---------------------------------------------------
  alpha Z        PSCENC =       310.22726681
  Ewald energy   TEWEN  =     -4309.47723045
  -Hartree energ DENC   =     -1403.50694816
  -exchange      EXHF   =         0.00000000
  -V(xc)+E(xc)   XCENC  =        58.91243410
  PAW double counting   =      4844.72352279    -4965.66376292
  entropy T*S    EENTRO =         0.00000000
  eigenvalues    EBANDS =      -246.68277878
  atomic energy  EATOM  =      5694.48197424
  Solvation  Ediel_sol  =         0.00000000
  ---------------------------------------------------
  free energy    TOTEN  =       -16.98552237 eV

  energy without entropy =      -16.98552237  energy(sigma->0) =      -16.98552237


--------------------------------------------------------------------------------------------------------




--------------------------------------- Iteration      1(  17)  ---------------------------------------


    POTLOK:  cpu time      0.0069: real time      0.0082
    SETDIJ:  cpu time      1.0044: real time      1.0050
     EDDAV:  cpu time      1.2150: real time      1.2161
 BZINTS: Fermi energy:    3.107407;   48.000000 electrons
         Band energy:-0.247644E+03;  BLOECHL correction:   -0.006273
       DOS:  cpu time      0.0093: real time      0.0093
    CHARGE:  cpu time      0.1162: real time      0.1163
    MIXING:  cpu time      0.0018: real time      0.0018
    --------------------------------------------
      LOOP:  cpu time      2.3535: real time      2.3565

 eigenvalue-minimisations  :  3032
 total energy-change (2. order) :-0.4266569E+00  (-0.1569365E+00)
 number of electron      48.0000001 magnetization       0.0664291
 augmentation part       22.8098060 magnetization       0.3874036

 Broyden mixing:
  rms(total) = 0.33917E+01    rms(broyden)= 0.33916E+01
  rms(prec ) = 0.57197E+01
  weight for this iteration     100.00

 eigenvalues of (default mixing * dielectric matrix)
  average eigenvalue GAMMA=   0.7657
  1.9383  1.4198  0.8629  0.8629  0.9705  0.9705  0.8242  0.4111  0.3356  0.3356
  0.1869  0.0707

 Free energy of the ion-electron system (eV)
  ---------------------------------------------------
  alpha Z        PSCENC =       310.22726681
  Ewald energy   TEWEN  =     -4309.47723045
  -Hartree energ DENC   =     -1403.08998532
  -exchange      EXHF   =         0.00000000
  -V(xc)+E(xc)   XCENC  =        58.89734099
  PAW double counting   =      4811.48309682    -4932.29037366
  entropy T*S    EENTRO =         0.00000000
  eigenvalues    EBANDS =      -247.64426872
  atomic energy  EATOM  =      5694.48197424
  Solvation  Ediel_sol  =         0.00000000
  ---------------------------------------------------
  free energy    TOTEN  =       -17.41217930 eV

  energy without entropy =      -17.41217930  energy(sigma->0) =      -17.41217930


--------------------------------------------------------------------------------------------------------




--------------------------------------- Iteration      1(  18)  ---------------------------------------


    POTLOK:  cpu time      0.0072: real time      0.0080
    SETDIJ:  cpu time      1.0058: real time      1.0063
     EDDAV:  cpu time      1.1226: real time      1.1237
 BZINTS: Fermi energy:    2.877210;   48.000000 electrons
         Band energy:-0.260448E+03;  BLOECHL correction:   -0.017538
       DOS:  cpu time      0.0087: real time      0.0087
    CHARGE:  cpu time      0.1212: real time      0.1213
    MIXING:  cpu time      0.0020: real time      0.0020
    --------------------------------------------
      LOOP:  cpu time      2.2674: real time      2.2699

 eigenvalue-minimisations  :  2760
 total energy-change (2. order) :-0.1675110E+01  (-0.1678647E+00)
 number of electron      48.0000001 magnetization       0.0350531
 augmentation part       23.1029966 magnetization       0.0071752

 Broyden mixing:
  rms(total) = 0.26601E+01    rms(broyden)= 0.26599E+01
  rms(prec ) = 0.55953E+01
  weight for this iteration     100.00

 eigenvalues of (default mixing * dielectric matrix)
  average eigenvalue GAMMA=   0.7626
  1.6612  1.6612  0.8853  0.8853  1.1362  1.1362  0.7193  0.4385  0.4014  0.4014
  0.3350  0.1706  0.0820

 Free energy of the ion-electron system (eV)
  ---------------------------------------------------
  alpha Z        PSCENC =       310.22726681
  Ewald energy   TEWEN  =     -4309.47723045
  -Hartree energ DENC   =     -1395.26283605
  -exchange      EXHF   =         0.00000000
  -V(xc)+E(xc)   XCENC  =        58.57341316
  PAW double counting   =      5193.54371311    -5310.72535621
  entropy T*S    EENTRO =         0.00000000
  eigenvalues    EBANDS =      -260.44823392
  atomic energy  EATOM  =      5694.48197424
  Solvation  Ediel_sol  =         0.00000000
  ---------------------------------------------------
  free energy    TOTEN  =       -19.08728932 eV

  energy without entropy =      -19.08728932  energy(sigma->0) =      -19.08728932


--------------------------------------------------------------------------------------------------------




--------------------------------------- Iteration      1(  19)  ---------------------------------------


    POTLOK:  cpu time      0.0074: real time      0.0078
    SETDIJ:  cpu time      1.0115: real time      1.0121
     EDDAV:  cpu time      1.0540: real time      1.0547
 BZINTS: Fermi energy:    2.676173;   48.000000 electrons
         Band energy:-0.268524E+03;  BLOECHL correction:   -0.013764
       DOS:  cpu time      0.0081: real time      0.0081
    CHARGE:  cpu time      0.1167: real time      0.1168
    MIXING:  cpu time      0.0019: real time      0.0019
    --------------------------------------------
      LOOP:  cpu time      2.1996: real time      2.2013

 eigenvalue-minimisations  :  2552
 total energy-change (2. order) :-0.1777653E+01  (-0.3057630E-01)
 number of electron      48.0000001 magnetization      -0.2515053
 augmentation part       23.3066943 magnetization      -0.3118686

 Broyden mixing:
  rms(total) = 0.29123E+01    rms(broyden)= 0.29123E+01
  rms(prec ) = 0.60843E+01
  weight for this iteration     100.00

 eigenvalues of (default mixing * dielectric matrix)
  average eigenvalue GAMMA=   0.8233
  1.9609  1.5283  1.5283  0.9018  0.9018  1.2188  0.6596  0.6596  0.6822  0.4039
  0.4039  0.3293  0.2696  0.0784

 Free energy of the ion-electron system (eV)
  ---------------------------------------------------
  alpha Z        PSCENC =       310.22726681
  Ewald energy   TEWEN  =     -4309.47723045
  -Hartree energ DENC   =     -1391.92536398
  -exchange      EXHF   =         0.00000000
  -V(xc)+E(xc)   XCENC  =        58.44212999
  PAW double counting   =      4696.87824143    -4810.96768723
  entropy T*S    EENTRO =         0.00000000
  eigenvalues    EBANDS =      -268.52427361
  atomic energy  EATOM  =      5694.48197424
  Solvation  Ediel_sol  =         0.00000000
[...]
  288          m_sumb_d                              0.000009                          2   4
  289        strnlr                                0.655350                            1   3
  290          rspher_all                            0.077045                          9   4
  291          phaser                                0.239995                        144   4
  292          rpro_isp                              0.334186                        144   4
  293            fftwav_mpi                            0.071645                     2304   5
  294              fftwav                                0.068823                   2304   6
  295                fft3d                                 0.015694                 2304   7
  296            rpromu_acc                            0.100603                      576   5
  297          m_sumb_d                              0.000009                          1   4
  298        fft3d_mpi                             0.003232                           22   3
  299          fftbrc_mpi                            0.002526                         22   4
  300            fftbas_plan_mpi                       0.002512                       22   5
  301              map_forward                           0.000898                     20   6
  302                map_gather                            0.000206                   10   7
  303                m_alltoallv_z                         0.000133                   10   7
  304                map_scatter                           0.000424                   10   7
  305              map_backward                          0.000958                     24   6
  306                map_gather                            0.000229                   12   7
  307                m_alltoallv_z                         0.000134                   12   7
  308                map_scatter                           0.000424                   12   7
  309        m_sumb_d                              0.000033                            5   3
  310        forhar                                0.001308                            2   3
  311          m_sumb_d                              0.000008                          2   4
  312        strehar                               0.000866                            1   3
  313          m_sumb_d                              0.000005                          1   4
  314        chggra                                0.000727                            1   3
  315          fft3d_mpi                             0.000428                          3   4
  316            fftbrc_mpi                            0.000334                        3   5
  317              fftbas_plan_mpi                       0.000333                      3   6
  318                map_forward                           0.000171                    4   7
  319                  map_gather                            0.000041                  2   8
  320                  m_alltoallv_z                         0.000025                  2   8
  321                  map_scatter                           0.000079                  2   8
  322                map_backward                          0.000080                    2   7
  323                  map_gather                            0.000019                  1   8
  324                  m_alltoallv_z                         0.000010                  1   8
  325                  map_scatter                           0.000036                  1   8
  326          m_sumb_d                              0.000009                          2   4
  327          pothar                                0.000073                          1   4
  328            m_sumb_d                              0.000006                        1   5
  329        brmix                                 0.004818                            1   3
  330          m_sumb_d                              0.000027                          6   4
  331          brpre                                 0.000016                          2   4
  332          setg0                                 0.000456                          1   4
  333          broyd                                 0.003799                          1   4
  334            brget                                 0.000835                      326   5
  335            brsav                                 0.000380                      163   5
  336            m_sumb_d                              0.000252                       47   5
  337        m_bcast_d                             0.000027                            2   3
  338      potlok                                0.018508                              2   2
  339        fft3d_mpi                             0.012206                           36   3
  340          fftbrc_mpi                            0.010235                         36   4
  341            fftbas_plan_mpi                       0.010218                       36   5
  342              map_forward                           0.003047                     40   6
  343                map_gather                            0.000988                   24   7
  344                m_alltoallv_z                         0.000965                   24   7
  345                map_scatter                           0.000915                   24   7
  346              map_backward                          0.002491                     32   6
  347                map_gather                            0.000821                   16   7
  348                m_alltoallv_z                         0.000716                   16   7
  349                map_scatter                           0.000783                   16   7
  350              dfftw_execute                         0.003093                     30   6
  351        m_sumb_d                              0.000023                            5   3
  352        pothar                                0.000706                            2   3
  353          m_sumb_d                              0.000065                          2   4
  354        m_bcast_d                             0.001154                            4   3
  355      potlok_metagga                        0.000000                              1   2
  356      set_dd_magatom                        0.000004                              1   2
  357      set_dd_paw                            0.941060                              1   2
  358        m_sumb_d                              0.465363                            7   3
  359      augmentation_charge                   0.074735                              1   2
  360        fft3d_mpi                             0.017512                            2   3
  361          fftbrc_mpi                            0.014695                          2   4
  362            fftbas_plan_mpi                       0.014693                        2   5
  363              dfftw_execute                         0.009173                      6   6
  364              map_backward                          0.005368                      4   6
  365                map_gather                            0.001414                    2   7
  366                m_alltoallv_z                         0.002701                    2   7
  367                map_scatter                           0.001246                    2   7
  368      fftwav_mpi                            0.341515                            768   2
  369        fftwav                                0.340578                          768   3
  370          fft3d                                 0.325410                        768   4
  371      densta                                0.223570                              1   2
 
 Flat profile
 ============
 
             routine name                   CPU           calls
 ---------------------------------------------------------------
 m_sumb_d                               34.402959       91556
 set_dd_paw                             26.292184          58
 lapack                                 12.707572       28306
 eddav                                  12.690510          60
 init_acc                               11.595806           1
 raccmu_                                11.452733       28306
 total_time                              7.254161           1
 redis_pw                                4.869516      158380
 setdij_                                 4.462055          84
 phaser                                  3.483984        2128
 augmentation_charge                     3.360590          58
 m_alltoall_d                            3.085387      412924
 acc_init_cublas                         2.473833           1
 dfftw_execute                           1.805361        1836
 fft3d                                   1.666305      170535
 redis_proj                              1.361057      199664
 eccp                                    1.313771       15360
 fftwav                                  1.126935      113923
 orth1                                   0.964986       84950
 soft_charge                             0.914356          57
 w1_copy                                 0.827778      169836
 overl                                   0.822210       97896
 racc0mu_acc                             0.821320       28306
 acc_init_cusolver                       0.801680           1
 densta                                  0.766542          61
 rpromu_acc                              0.734255       21458
 m_alltoallv_z                           0.705476        2369
 hamiltmu                                0.603537       28306
 m_bcast_z                               0.590788       29330
 setup_precond                           0.556743       15360
 m_bcast_d                               0.463205       56733
 overl_mu                                0.437206       28306
 ggemm                                   0.391132       35986
 fft3d_mpi                               0.377802       58731
 pw_charge                               0.313209       11963
 set_charge                              0.296671          57
 map_gather                              0.271094        2369
 newband                                 0.267998       30226
 map_scatter                             0.263292        2369
 vhamil                                  0.261266       56612
 kinhamil                                0.257929       56612
 fftext_mpi                              0.240903       56612
 depsum                                  0.238779          57
 rpro_isp                                0.225800         208
 apply_precond                           0.225556       41252
 potlok                                  0.158376          58
 fftwav_mpi                              0.154469      113923
 acc_cufft_makeplan                      0.130133          19
 rspher_all                              0.115457          14
 fftbas_plan_mpi                         0.114295        2119
 elmin                                   0.098517           1
 broyd                                   0.075578          56
 lincom                                  0.060252        1952
 proall                                  0.040374           1
 brmix                                   0.031775          56
 setg0                                   0.029643          58
 w1_projall                              0.021353       20626
 brget                                   0.021254        8099
 sphpro_fast                             0.020476           2
 map_backward                            0.011014        2222
 map_forward                             0.010579        2016
 orthch                                  0.007423           1
 force_and_stress                        0.007322           1
 choleski                                0.006402          32
 truncate_high_frequency_w1              0.006091       71972
 brsav                                   0.005366        2092
 pothar                                  0.004772          59
 inisym                                  0.004759           1
 strnlr                                  0.004115           1
 stufak                                  0.001898           1
 fornlr                                  0.001448           1
 fft_gq                                  0.001377          57
 forhar                                  0.001300           2
 fftbrc_mpi                              0.001258        2119
 strelo                                  0.001157           1
 brpre                                   0.000965         112
 strehar                                 0.000861           1
 forloc                                  0.000698           1
 fewald                                  0.000337           1
 set_dd_magatom                          0.000261          58
 vectorpot                               0.000237          57
 chggra                                  0.000217           1
 strkin                                  0.000213           1
 brgrid                                  0.000107           1
 rsp                                     0.000049           1
 fordep                                  0.000043           1
 posmap                                  0.000035           2
 crpa_reader                             0.000027           1
 rcp                                     0.000012           1
 acc_cufft_makeplans                     0.000011           3
 potlok_metagga                          0.000002          57
 rotate_active_occupied_orbital          0.000000           1
 redis_pw_over_bands                     0.000000           1
 ---------------------------------------------------------------
  summed up times     160.1985349655151     
 
 Accumulative profile
 ====================
 
             routine name                   CPU           calls
 ---------------------------------------------------------------
 total_time                            160.198535           1
 elmin                                 131.528088           1
 eddav                                  67.447016          60
 set_dd_paw                             53.874789          58
 m_sumb_d                               34.402959       91556
 hamiltmu                               14.495938       28306
 raccmu_                                12.711259       28306
 lapack                                 12.707572       28306
 init_acc                               11.595806           1
 set_charge                              6.680940          57
 setdij_                                 6.474591          84
 redis_pw                                6.313665      158380
 augmentation_charge                     4.366863          58
 fft3d_mpi                               3.963765       58731
 force_and_stress                        3.931654           1
 phaser                                  3.483984        2128
 newband                                 3.255478       30226
 fftbrc_mpi                              3.182367        2119
 fftbas_plan_mpi                         3.181110        2119
 m_alltoall_d                            3.085387      412924
 redis_proj                              3.002295      199664
 fftwav_mpi                              2.544113      113923
 acc_init_cublas                         2.473833           1
 fftwav                                  2.389644      113923
 soft_charge                             1.807955          57
 dfftw_execute                           1.805361        1836
 fft3d                                   1.666305      170535
 eccp                                    1.313771       15360
 orth1                                   0.964986       84950
 kinhamil                                0.919877       56612
 w1_copy                                 0.827778      169836
 overl                                   0.822210       97896
 racc0mu_acc                             0.821320       28306
 acc_init_cusolver                       0.801680           1
 densta                                  0.766542          61
 rpromu_acc                              0.734255       21458
 map_forward                             0.722081        2016
 m_alltoallv_z                           0.705476        2369
 fftext_mpi                              0.661948       56612
 strnlr                                  0.655350           1
 w1_projall                              0.619298       20626
 m_bcast_z                               0.590788       29330
 potlok                                  0.574940          58
 setup_precond                           0.556743       15360
 map_backward                            0.539373        2222
 m_bcast_d                               0.463205       56733
 rpro_isp                                0.462060         208
 fordep                                  0.460299           1
 overl_mu                                0.437206       28306
 ggemm                                   0.391132       35986
 pw_charge                               0.313209       11963
 map_gather                              0.271094        2369
 map_scatter                             0.263292        2369
 vhamil                                  0.261266       56612
 orthch                                  0.250116           1
 depsum                                  0.241966          57
 apply_precond                           0.225556       41252
 fornlr                                  0.220148           1
 brmix                                   0.175384          56
 acc_cufft_makeplans                     0.130144           3
 acc_cufft_makeplan                      0.130133          19
 rspher_all                              0.115457          14
 broyd                                   0.111265          56
 proall                                  0.082866           1
 lincom                                  0.060252        1952
 fft_gq                                  0.058754          57
 setg0                                   0.029643          58
 brget                                   0.021254        8099
 sphpro_fast                             0.021038           2
 choleski                                0.006402          32
 truncate_high_frequency_w1              0.006091       71972
 brsav                                   0.005366        2092
 pothar                                  0.005273          59
 inisym                                  0.004794           1
 stufak                                  0.001898           1
 forhar                                  0.001308           2
 strelo                                  0.001166           1
 brpre                                   0.000965         112
 strehar                                 0.000866           1
 forloc                                  0.000758           1
 chggra                                  0.000727           1
 fewald                                  0.000450           1
 set_dd_magatom                          0.000261          58
 vectorpot                               0.000237          57
 strkin                                  0.000227           1
 brgrid                                  0.000107           1
 rsp                                     0.000049           1
 posmap                                  0.000035           2
 crpa_reader                             0.000027           1
 rcp                                     0.000012           1
 potlok_metagga                          0.000002          57
 rotate_active_occupied_orbital          0.000000           1
 redis_pw_over_bands                     0.000000           1
 ---------------------------------------------------------------
 
Profiling took   0.362208  0.178502  0.003256  0.003174 seconds
Profiling took   0.230271 seconds
