 vasp.6.3.2 27Jun22 (build Jul  3 2023 11:46:21) complex                         
 executed on    LinuxNV_CrayMPICH date 2024.04.22  02:59:21
 running on    4 total cores
 distrk:  each k-point on    4 cores,    1 groups
 distr:  one band on NCORE=   1 cores,    4 groups


--------------------------------------------------------------------------------------------------------


 INCAR:
   ADDGRID = True
   ALGO = Normal
   EDIFF = 0.0023
   ENCUT = 520.0
   IBRION = -1
   ICHARG = 0
   ISIF = 3
   ISMEAR = 0
   ISPIN = 2
   KPOINT_BSE = -1 0 0 0
   LAECHG = True
   LASPH = True
   LCHARG = True
   LELF = True
   LORBIT = 11
   LREAL = Auto
   LVHAR = True
   LWAVE = False
   MAGMOM = 2*7.0 40*0.6 4*5.0
   NELM = 1000
   NSW = 0
   PREC = accurate
   SIGMA = 0.05

 POTCAR:    PAW_PBE Gd 23Dec2003                  
 POTCAR:    PAW_PBE Cd 06Sep2000                  
 POTCAR:    PAW_PBE Ni_pv 06Sep2000               
 POTCAR:    PAW_PBE Gd 23Dec2003                  
   SHA256 =  58854b40b4643190560b0e2b62d2ab46bea96585f82c6231a0f4f44b8c3188dc Gd/POTCAR             
   COPYR  = (c) Copyright 23Dec2003 Georg Kresse                                                    
   COPYR  = This file is part of the software VASP. Any use, copying, and all other rights are regul
   COPYR  = If you do not have a valid VASP license, you may not use, copy or distribute this file. 
   VRHFIN =Gd : [core=Xe4]                                                                          
   LEXCH  = PE                                                                                      
   EATOM  =  3047.6032 eV,  223.9925 Ry                                                             
                                                                                                    
   TITEL  = PAW_PBE Gd 23Dec2003                                                                    
   LULTRA =        F    use ultrasoft PP ?                                                          
   IUNSCR =        1    unscreen: 0-lin 1-nonlin 2-no                                               
   RPACOR =    2.300    partial core radius                                                         
   POMASS =  157.250; ZVAL   =   18.000    mass and valenz                                          
   RCORE  =    2.800    outmost cutoff radius                                                       
   RWIGS  =    2.800; RWIGS  =    1.482    wigner-seitz radius (au A)                               
   ENMAX  =  256.472; ENMIN  =  192.354 eV                                                          
   RCLOC  =    2.316    cutoff for local pot                                                        
   LCOR   =        T    correct aug charges                                                         
   LPAW   =        T    paw PP                                                                      
   EAUG   =  537.243                                                                                
   DEXC   =    0.000                                                                                
   RMAX   =    2.857    core radius for proj-oper                                                   
   RAUG   =    1.300    factor for augmentation sphere                                              
   RDEP   =    2.921    radius for radial grids                                                     
   RDEPT  =    2.247    core radius for aug-charge                                                  
                                                                                                    
   Atomic configuration                                                                             
   14 entries                                                                                       
     n  l   j            E        occ.                                                              
     1  0  0.50    -50087.2354   2.0000                                                             
     2  0  0.50     -8269.2182   2.0000                                                             
     2  1  1.50     -7357.3672   6.0000                                                             
     3  0  0.50     -1833.2681   2.0000                                                             
     3  1  1.50     -1550.9376   6.0000                                                             
     3  2  2.50     -1178.7204  10.0000                                                             
     4  0  0.50      -369.2978   2.0000                                                             
     4  1  1.50      -276.2601   6.0000                                                             
     4  2  2.50      -147.6611  10.0000                                                             
     5  0  0.50       -49.7260   2.0000                                                             
     6  0  0.50        -4.1254   2.0000                                                             
     5  1  1.50       -27.2538   6.0000                                                             
     5  2  2.50        -2.5337   1.0000                                                             
     4  3  2.50        -8.7140   7.0000                                                             
   Description                                                                                      
     l       E           TYP  RCUT    TYP  RCUT                                                     
     0    -49.7259557     23  2.400                                                                 
     0     -4.1254107     23  2.400                                                                 
     1    -27.2537518     23  2.400                                                                 
     1     20.4087390     23  2.400                                                                 
     2     -2.5337329     23  2.500                                                                 
     2     13.6058260     23  2.500                                                                 
     3     -8.7140389     23  2.800                                                                 
     3     -9.5240782     23  2.800                                                                 
  local pseudopotential read in
  partial core-charges read in
  partial kinetic energy density read in
  atomic valenz-charges read in
  non local Contribution for L=            0  read in
    real space projection operators read in
  non local Contribution for L=            0  read in
    real space projection operators read in
  non local Contribution for L=            1  read in
    real space projection operators read in
  non local Contribution for L=            1  read in
    real space projection operators read in
  non local Contribution for L=            2  read in
    real space projection operators read in
  non local Contribution for L=            2  read in
    real space projection operators read in
  non local Contribution for L=            3  read in
    real space projection operators read in
  non local Contribution for L=            3  read in
    real space projection operators read in
    PAW grid and wavefunctions read in
 
   number of l-projection  operators is LMAX  =            8
   number of lm-projection operators is LMMAX =           32
 
 POTCAR:    PAW_PBE Cd 06Sep2000                  
   SHA256 =  8b7ca71966beae5276c8bb910adb3ecc013a3354c27473914c94cd54c83be4f7 Cd/POTCAR             
   COPYR  = (c) Copyright 06Sep2000 Georg Kresse                                                    
   COPYR  = This file is part of the software VASP. Any use, copying, and all other rights are regul
   COPYR  = If you do not have a valid VASP license, you may not use, copy or distribute this file. 
   VRHFIN =Cd : s2 d10                                                                              
   LEXCH  = PE                                                                                      
   EATOM  =  1293.1815 eV,   95.0462 Ry                                                             
                                                                                                    
   TITEL  = PAW_PBE Cd 06Sep2000                                                                    
   LULTRA =        F    use ultrasoft PP ?                                                          
   IUNSCR =        1    unscreen: 0-lin 1-nonlin 2-no                                               
   RPACOR =    2.000    partial core radius                                                         
   POMASS =  112.411; ZVAL   =   12.000    mass and valenz                                          
   RCORE  =    2.300    outmost cutoff radius                                                       
   RWIGS  =    2.980; RWIGS  =    1.577    wigner-seitz radius (au A)                               
   ENMAX  =  274.336; ENMIN  =  205.752 eV                                                          
   RCLOC  =    2.054    cutoff for local pot                                                        
   LCOR   =        T    correct aug charges                                                         
   LPAW   =        T    paw PP                                                                      
   EAUG   =  456.106                                                                                
   DEXC   =    0.000                                                                                
   RMAX   =    2.358    core radius for proj-oper                                                   
   RAUG   =    1.300    factor for augmentation sphere                                              
   RDEP   =    2.450    radius for radial grids                                                     
   RDEPT  =    1.955    core radius for aug-charge                                                  
                                                                                                    
   Atomic configuration                                                                             
   12 entries                                                                                       
     n  l   j            E        occ.                                                              
     1  0  0.50    -26519.7817   2.0000                                                             
     2  0  0.50     -3936.9612   2.0000                                                             
     2  1  1.50     -3532.2230   6.0000                                                             
     3  0  0.50      -733.7908   2.0000                                                             
     3  1  1.50      -601.0792   6.0000                                                             
     3  2  2.50      -393.5307  10.0000                                                             
     4  0  0.50      -105.8977   2.0000                                                             
     4  1  1.50       -66.9488   6.0000                                                             
     4  2  2.50       -11.7331  10.0000                                                             
     5  0  0.50        -5.6592   2.0000                                                             
     5  1  0.50        -1.3606   0.0000                                                             
     4  3  2.50        -1.3606   0.0000                                                             
   Description                                                                                      
     l       E           TYP  RCUT    TYP  RCUT                                                     
     2    -11.7331479     23  2.300                                                                 
     2    -13.0937305     23  2.300                                                                 
     0     -5.6591502     23  2.300                                                                 
     0     -1.5561433     23  2.300                                                                 
     1     -2.7211652     23  2.300                                                                 
     1      8.3548275     23  2.300                                                                 
  local pseudopotential read in
  partial core-charges read in
  partial kinetic energy density read in
  atomic valenz-charges read in
  non local Contribution for L=            2  read in
    real space projection operators read in
  non local Contribution for L=            2  read in
    real space projection operators read in
  non local Contribution for L=            0  read in
    real space projection operators read in
  non local Contribution for L=            0  read in
    real space projection operators read in
  non local Contribution for L=            1  read in
    real space projection operators read in
  non local Contribution for L=            1  read in
    real space projection operators read in
    PAW grid and wavefunctions read in
 
   number of l-projection  operators is LMAX  =            6
   number of lm-projection operators is LMMAX =           18
 
 POTCAR:    PAW_PBE Ni_pv 06Sep2000               
   SHA256 =  368cd815a19284a5fda64519f43fef792dad8376deb9e2da41aae78b997dc50e Ni_pv/POTCAR          
   COPYR  = (c) Copyright 06Sep2000 Georg Kresse                                                    
   COPYR  = This file is part of the software VASP. Any use, copying, and all other rights are regul
   COPYR  = If you do not have a valid VASP license, you may not use, copy or distribute this file. 
   VRHFIN =Ni:                                                                                      
   LEXCH  = PE                                                                                      
   EATOM  =  3501.1230 eV,  257.3253 Ry                                                             
                                                                                                    
   TITEL  = PAW_PBE Ni_pv 06Sep2000                                                                 
   LULTRA =        F    use ultrasoft PP ?                                                          
   IUNSCR =        1    unscreen: 0-lin 1-nonlin 2-no                                               
   RPACOR =    1.500    partial core radius                                                         
   POMASS =   58.690; ZVAL   =   16.000    mass and valenz                                          
   RCORE  =    2.000    outmost cutoff radius                                                       
   RWIGS  =    2.000; RWIGS  =    1.058    wigner-seitz radius (au A)                               
   ENMAX  =  367.986; ENMIN  =  275.989 eV                                                          
   RCLOC  =    1.301    cutoff for local pot                                                        
   LCOR   =        T    correct aug charges                                                         
   LPAW   =        T    paw PP                                                                      
   EAUG   =  703.443                                                                                
   DEXC   =    0.000                                                                                
   RMAX   =    2.041    core radius for proj-oper                                                   
   RAUG   =    1.300    factor for augmentation sphere                                              
   RDEP   =    2.103    radius for radial grids                                                     
   RDEPT  =    1.618    core radius for aug-charge                                                  
                                                                                                    
   Atomic configuration                                                                             
    8 entries                                                                                       
     n  l   j            E        occ.                                                              
     1  0  0.50     -8206.4253   2.0000                                                             
     2  0  0.50      -976.1748   2.0000                                                             
     2  1  1.50      -839.0571   6.0000                                                             
     3  0  0.50      -105.9991   2.0000                                                             
     3  1  1.50       -66.4603   6.0000                                                             
     3  2  2.50        -4.6458   9.0000                                                             
     4  0  0.50        -4.4926   1.0000                                                             
     4  3  2.50        -1.3606   0.0000                                                             
   Description                                                                                      
     l       E           TYP  RCUT    TYP  RCUT                                                     
     1    -66.4602962     23  1.700                                                                 
     1     -1.3605826     23  1.700                                                                 
     2     -4.6457867     23  2.000                                                                 
     2     -6.0063693     23  2.000                                                                 
     0     -4.4925576     23  1.900                                                                 
     0     16.3626226     23  1.900                                                                 
  local pseudopotential read in
  partial core-charges read in
  partial kinetic energy density read in
  atomic valenz-charges read in
  non local Contribution for L=            1  read in
    real space projection operators read in
  non local Contribution for L=            1  read in
    real space projection operators read in
  non local Contribution for L=            2  read in
    real space projection operators read in
  non local Contribution for L=            2  read in
    real space projection operators read in
  non local Contribution for L=            0  read in
    real space projection operators read in
  non local Contribution for L=            0  read in
    real space projection operators read in
    PAW grid and wavefunctions read in
 
   number of l-projection  operators is LMAX  =            6
   number of lm-projection operators is LMMAX =           18
 
 Optimization of the real space projectors (new method)

 maximal supplied QI-value         = 13.42
 optimisation between [QCUT,QGAM] = [ 11.67, 23.35] = [ 38.16,152.62] Ry 
 Optimized for a Real-space Cutoff    1.63 Angstroem

   l    n(q)    QCUT    max X(q) W(low)/X(q) W(high)/X(q)  e(spline) 
   0     11    11.673    10.501    0.14E-04    0.17E-05    0.21E-07
   0     11    11.673     9.148    0.21E-04    0.32E-05    0.45E-07
   1     11    11.673     4.035    0.33E-05    0.11E-04    0.84E-07
   1     11    11.673     4.388    0.11E-04    0.47E-04    0.34E-06
   2     10    11.673    20.656    0.12E-04    0.28E-04    0.54E-06
   2     10    11.673    12.651    0.11E-04    0.26E-04    0.51E-06
   3     10    11.673    61.921    0.19E-03    0.22E-03    0.23E-06
   3     10    11.673    48.328    0.20E-03    0.23E-03    0.23E-06
 Optimization of the real space projectors (new method)

 maximal supplied QI-value         = 16.25
 optimisation between [QCUT,QGAM] = [ 11.54, 23.24] = [ 37.28,151.24] Ry 
 Optimized for a Real-space Cutoff    1.49 Angstroem

   l    n(q)    QCUT    max X(q) W(low)/X(q) W(high)/X(q)  e(spline) 
   2      9    11.539    73.106    0.18E-03    0.88E-04    0.18E-06
   2      9    11.539    71.731    0.19E-03    0.89E-04    0.19E-06
   0     10    11.539   146.509    0.42E-04    0.28E-04    0.31E-06
   0     10    11.539    95.017    0.39E-04    0.27E-04    0.30E-06
   1     10    11.539    36.165    0.52E-04    0.99E-04    0.10E-06
   1     10    11.539    31.530    0.47E-04    0.91E-04    0.92E-07
 Optimization of the real space projectors (new method)

 maximal supplied QI-value         = 18.90
 optimisation between [QCUT,QGAM] = [ 11.53, 23.24] = [ 37.21,151.29] Ry 
 Optimized for a Real-space Cutoff    1.36 Angstroem

   l    n(q)    QCUT    max X(q) W(low)/X(q) W(high)/X(q)  e(spline) 
   1      9    11.527     2.836    0.16E-04    0.30E-04    0.95E-07
   1      9    11.527     4.023    0.73E-04    0.81E-04    0.21E-06
   2      9    11.527    73.368    0.15E-03    0.29E-03    0.28E-06
   2      9    11.527    69.010    0.15E-03    0.29E-03    0.29E-06
   0      9    11.527    54.797    0.43E-04    0.28E-04    0.85E-07
   0      9    11.527    24.266    0.33E-04    0.24E-04    0.75E-07
  PAW_PBE Gd 23Dec2003                  :
 energy of atom  1       EATOM=-3047.6032
 kinetic energy error for atom=    0.0019 (will be added to EATOM!!)
  PAW_PBE Cd 06Sep2000                  :
 energy of atom  2       EATOM=-1293.1815
 kinetic energy error for atom=    0.0062 (will be added to EATOM!!)
  PAW_PBE Ni_pv 06Sep2000               :
 energy of atom  3       EATOM=-3501.1230
 kinetic energy error for atom=    0.0575 (will be added to EATOM!!)
 
 
 POSCAR: Gd2 Cd40 Ni4
  positions in direct lattice
  No initial velocities read in
 exchange correlation table for  LEXCH =        8
   RHO(1)=    0.500       N(1)  =     2000
   RHO(2)=  100.500       N(2)  =     4000

 VTST: version 4.2, (08/11/21)

 CHAIN: initializing optimizer
 
 OPT: Using VASP Dynamics algorithm
 CHAIN: Read ICHAIN             0
 
 POSCAR: Gd2 Cd40 Ni4
  positions in direct lattice
  No initial velocities read in
 


--------------------------------------------------------------------------------------------------------


 ion  position               nearest neighbor table
   1  0.500  0.500  0.500-  39 3.42  40 3.42  41 3.42  42 3.42  12 3.45   7 3.45   8 3.45   9 3.45
                            10 3.45   3 3.45  13 3.45  14 3.45   4 3.45   5 3.45   6 3.45  11 3.45
   2  0.750  0.750  0.750-  39 3.42  40 3.42  41 3.42  42 3.42  24 3.45  19 3.45  20 3.45  21 3.45
                            22 3.45  15 3.45  25 3.45  26 3.45  16 3.45  17 3.45  18 3.45  23 3.45
   3  0.568  0.302  0.302-   6 2.90   7 2.97  11 2.97  32 2.98  43 3.10  35 3.13  33 3.13  20 3.22
                            25 3.22  41 3.35  40 3.35   1 3.45
   4  0.302  0.568  0.828-   5 2.90  10 2.97  13 2.97  31 2.98  44 3.10  36 3.13  33 3.13  23 3.22
                            21 3.22  42 3.35  39 3.35   1 3.45
   5  0.302  0.828  0.568-   4 2.90   8 2.97  14 2.97  31 2.98  45 3.10  35 3.13  34 3.13  19 3.22
                            24 3.22  42 3.35  39 3.35   1 3.45
   6  0.828  0.302  0.302-   3 2.90   9 2.97  12 2.97  32 2.98  46 3.10  36 3.13  34 3.13  22 3.22
                            26 3.22  41 3.35  40 3.35   1 3.45
   7  0.302  0.302  0.568-  10 2.90   3 2.97  11 2.97  28 2.98  45 3.10  37 3.13  35 3.13  17 3.22
                            24 3.22  40 3.35  39 3.35   1 3.45
   8  0.568  0.828  0.302-   9 2.90   5 2.97  14 2.97  27 2.98  43 3.10  38 3.13  35 3.13  15 3.22
                            25 3.22  42 3.35  41 3.35   1 3.45
   9  0.828  0.568  0.302-   8 2.90   6 2.97  12 2.97  27 2.98  44 3.10  37 3.13  36 3.13  16 3.22
                            23 3.22  42 3.35  41 3.35   1 3.45
  10  0.302  0.302  0.828-   7 2.90   4 2.97  13 2.97  28 2.98  46 3.10  38 3.13  36 3.13  18 3.22
                            26 3.22  40 3.35  39 3.35   1 3.45
  11  0.302  0.568  0.302-  14 2.90   7 2.97   3 2.97  30 2.98  44 3.10  37 3.13  33 3.13  16 3.22
                            21 3.22  41 3.35  39 3.35   1 3.45
  12  0.828  0.302  0.568-  13 2.90   9 2.97   6 2.97  29 2.98  45 3.10  37 3.13  34 3.13  17 3.22
                            19 3.22  42 3.35  40 3.35   1 3.45
  13  0.568  0.302  0.828-  12 2.90  10 2.97   4 2.97  29 2.98  43 3.10  38 3.13  33 3.13  15 3.22
                            20 3.22  42 3.35  40 3.35   1 3.45
  14  0.302  0.828  0.302-  11 2.90   8 2.97   5 2.97  30 2.98  46 3.10  38 3.13  34 3.13  18 3.22
                            22 3.22  41 3.35  39 3.35   1 3.45
  15  0.682  0.948  0.948-  18 2.90  19 2.97  23 2.97  38 2.98  43 3.10  27 3.13  29 3.13  13 3.22
                             8 3.22  41 3.35  40 3.35   2 3.45
  16  0.948  0.682  0.422-  17 2.90  22 2.97  25 2.97  37 2.98  44 3.10  27 3.13  30 3.13  11 3.22
                             9 3.22  42 3.35  39 3.35   2 3.45
  17  0.948  0.422  0.682-  16 2.90  20 2.97  26 2.97  37 2.98  45 3.10  28 3.13  29 3.13  12 3.22
                             7 3.22  42 3.35  39 3.35   2 3.45
  18  0.422  0.948  0.948-  15 2.90  21 2.97  24 2.97  38 2.98  46 3.10  28 3.13  30 3.13  14 3.22
                            10 3.22  41 3.35  40 3.35   2 3.45
  19  0.948  0.948  0.682-  22 2.90  15 2.97  23 2.97  34 2.98  45 3.10  29 3.13  31 3.13  12 3.22
                             5 3.22  40 3.35  39 3.35   2 3.45
  20  0.682  0.422  0.948-  21 2.90  17 2.97  26 2.97  33 2.98  43 3.10  29 3.13  32 3.13  13 3.22
                             3 3.22  42 3.35  41 3.35   2 3.45
  21  0.422  0.682  0.948-  20 2.90  18 2.97  24 2.97  33 2.98  44 3.10  30 3.13  31 3.13  11 3.22
                             4 3.22  42 3.35  41 3.35   2 3.45
  22  0.948  0.948  0.422-  19 2.90  16 2.97  25 2.97  34 2.98  46 3.10  30 3.13  32 3.13  14 3.22
                             6 3.22  40 3.35  39 3.35   2 3.45
  23  0.948  0.682  0.948-  26 2.90  19 2.97  15 2.97  36 2.98  44 3.10  27 3.13  31 3.13   4 3.22
                             9 3.22  41 3.35  39 3.35   2 3.45
  24  0.422  0.948  0.682-  25 2.90  21 2.97  18 2.97  35 2.98  45 3.10  28 3.13  31 3.13   7 3.22
                             5 3.22  42 3.35  40 3.35   2 3.45
  25  0.682  0.948  0.422-  24 2.90  22 2.97  16 2.97  35 2.98  43 3.10  27 3.13  32 3.13   8 3.22
                             3 3.22  42 3.35  40 3.35   2 3.45
  26  0.948  0.422  0.948-  23 2.90  20 2.97  17 2.97  36 2.98  46 3.10  28 3.13  32 3.13  10 3.22
                             6 3.22  41 3.35  39 3.35   2 3.45
  27  0.863  0.863  0.137-  43 2.80  44 2.80   8 2.98   9 2.98  31 3.06  32 3.06  29 3.06  30 3.06
                            23 3.13  25 3.13  15 3.13  16 3.13
  28  0.137  0.137  0.863-  45 2.80  46 2.80   7 2.98  10 2.98  31 3.06  32 3.06  29 3.06  30 3.06
                            24 3.13  26 3.13  17 3.13  18 3.13
  29  0.863  0.137  0.863-  45 2.80  43 2.80  12 2.98  13 2.98  31 3.06  32 3.06  27 3.06  28 3.06
                            19 3.13  20 3.13  15 3.13  17 3.13
  30  0.137  0.863  0.137-  44 2.80  46 2.80  11 2.98  14 2.98  31 3.06  32 3.06  27 3.06  28 3.06
                            21 3.13  22 3.13  16 3.13  18 3.13
  31  0.137  0.863  0.863-  44 2.80  45 2.80   4 2.98   5 2.98  29 3.06  30 3.06  27 3.06  28 3.06
                            23 3.13  24 3.13  19 3.13  21 3.13
  32  0.863  0.137  0.137-  46 2.80  43 2.80   3 2.98   6 2.98  29 3.06  30 3.06  27 3.06  28 3.06
                            25 3.13  26 3.13  20 3.13  22 3.13
  33  0.387  0.387  0.113-  43 2.80  44 2.80  20 2.98  21 2.98  37 3.06  38 3.06  35 3.06  36 3.06
                             3 3.13   4 3.13  11 3.13  13 3.13
  34  0.113  0.113  0.387-  45 2.80  46 2.80  19 2.98  22 2.98  37 3.06  38 3.06  35 3.06  36 3.06
                             5 3.13   6 3.13  12 3.13  14 3.13
  35  0.387  0.113  0.387-  45 2.80  43 2.80  24 2.98  25 2.98  37 3.06  38 3.06  33 3.06  34 3.06
                             3 3.13   5 3.13   7 3.13   8 3.13
  36  0.113  0.387  0.113-  44 2.80  46 2.80  23 2.98  26 2.98  37 3.06  38 3.06  33 3.06  34 3.06
                             4 3.13   6 3.13   9 3.13  10 3.13
  37  0.113  0.387  0.387-  44 2.80  45 2.80  16 2.98  17 2.98  35 3.06  36 3.06  33 3.06  34 3.06
                             7 3.13   9 3.13  11 3.13  12 3.13
  38  0.387  0.113  0.113-  46 2.80  43 2.80  15 2.98  18 2.98  35 3.06  36 3.06  33 3.06  34 3.06
                             8 3.13  10 3.13  13 3.13  14 3.13
  39  0.125  0.625  0.625-   4 3.35   5 3.35   7 3.35  10 3.35  11 3.35  14 3.35  16 3.35  17 3.35
                            19 3.35  22 3.35  23 3.35  26 3.35   1 3.42   2 3.42
  40  0.625  0.125  0.625-   7 3.35  19 3.35   3 3.35  10 3.35  12 3.35  13 3.35  15 3.35  18 3.35
                             6 3.35  22 3.35  24 3.35  25 3.35   1 3.42   2 3.42
  41  0.625  0.625  0.125-  11 3.35  23 3.35   8 3.35   9 3.35   3 3.35  14 3.35  15 3.35  18 3.35
                            20 3.35  21 3.35   6 3.35  26 3.35   1 3.42   2 3.42
  42  0.625  0.625  0.625-   4 3.35   5 3.35  12 3.35  16 3.35  17 3.35  24 3.35   9 3.35   8 3.35
                            20 3.35  21 3.35  13 3.35  25 3.35   1 3.42   2 3.42
  43  0.625  0.125  0.125-  27 2.80  29 2.80  32 2.80  33 2.80  35 2.80  38 2.80   3 3.10  15 3.10
                            20 3.10  25 3.10  13 3.10   8 3.10
  44  0.125  0.625  0.125-  27 2.80  30 2.80  31 2.80  33 2.80  36 2.80  37 2.80   4 3.10  16 3.10
                            21 3.10  23 3.10  11 3.10   9 3.10
  45  0.125  0.125  0.625-  29 2.80  35 2.80  31 2.80  34 2.80  28 2.80  37 2.80   5 3.10   7 3.10
                            12 3.10  17 3.10  19 3.10  24 3.10
  46  0.125  0.125  0.125-  32 2.80  38 2.80  28 2.80  34 2.80  36 2.80  30 2.80   6 3.10  18 3.10
                            22 3.10  26 3.10  14 3.10  10 3.10
 
  LATTYP: Found a face centered cubic cell.
 ALAT       =    15.7840720000
  
  Lattice vectors:
  
 A1 = (   0.0000000000,   7.8920360000,   7.8920360000)
 A2 = (   7.8920360000,   0.0000000000,   7.8920360000)
 A3 = (   7.8920360000,   7.8920360000,   0.0000000000)


Analysis of symmetry for initial positions (statically):
=====================================================================
 Subroutine PRICEL returns:
 Original cell was already a primitive cell.
 

 Routine SETGRP: Setting up the symmetry group for a 
 face centered cubic supercell.


 Subroutine GETGRP returns: Found 48 space group operations
 (whereof 24 operations were pure point group operations)
 out of a pool of 48 trial point group operations.


The static configuration has the point symmetry T_d .
 The point group associated with its full space group is O_h .


Analysis of symmetry for dynamics (positions and initial velocities):
=====================================================================
 Subroutine PRICEL returns:
 Original cell was already a primitive cell.
 

 Routine SETGRP: Setting up the symmetry group for a 
 face centered cubic supercell.


 Subroutine GETGRP returns: Found 48 space group operations
 (whereof 24 operations were pure point group operations)
 out of a pool of 48 trial point group operations.


The dynamic configuration has the point symmetry T_d .
 The point group associated with its full space group is O_h .


Analysis of structural, dynamic, and magnetic symmetry:
=====================================================================
 Subroutine PRICEL returns:
 Original cell was already a primitive cell.
 

 Routine SETGRP: Setting up the symmetry group for a 
 face centered cubic supercell.


 Subroutine GETGRP returns: Found 48 space group operations
 (whereof 24 operations were pure point group operations)
 out of a pool of 48 trial point group operations.


The overall configuration has the point symmetry T_d .
 The point group associated with its full space group is O_h .


 Subroutine INISYM returns: Found 48 space group operations
 (whereof 24 operations are pure point group operations),
 and found     1 'primitive' translations


----------------------------------------------------------------------------------------

                                     Primitive cell                                     

  volume of cell :     983.0988

  direct lattice vectors                    reciprocal lattice vectors
     0.000000000  7.892036000  7.892036000    -0.063355008  0.063355008  0.063355008
     7.892036000  0.000000000  7.892036000     0.063355008 -0.063355008  0.063355008
     7.892036000  7.892036000  0.000000000     0.063355008  0.063355008 -0.063355008

  length of vectors
    11.161024346 11.161024346 11.161024346     0.109734092  0.109734092  0.109734092

  position of ions in fractional coordinates (direct lattice)
     0.500000000  0.500000000  0.500000000
     0.750000000  0.750000000  0.750000000
     0.568184000  0.301789000  0.301789000
     0.301789000  0.568184000  0.828238000
     0.301789000  0.828238000  0.568184000
     0.828238000  0.301789000  0.301789000
     0.301789000  0.301789000  0.568184000
     0.568184000  0.828238000  0.301789000
     0.828238000  0.568184000  0.301789000
     0.301789000  0.301789000  0.828238000
     0.301789000  0.568184000  0.301789000
     0.828238000  0.301789000  0.568184000
     0.568184000  0.301789000  0.828238000
     0.301789000  0.828238000  0.301789000
     0.681816000  0.948211000  0.948211000
     0.948211000  0.681816000  0.421762000
     0.948211000  0.421762000  0.681816000
     0.421762000  0.948211000  0.948211000
     0.948211000  0.948211000  0.681816000
     0.681816000  0.421762000  0.948211000
     0.421762000  0.681816000  0.948211000
     0.948211000  0.948211000  0.421762000
     0.948211000  0.681816000  0.948211000
     0.421762000  0.948211000  0.681816000
     0.681816000  0.948211000  0.421762000
     0.948211000  0.421762000  0.948211000
     0.862962000  0.862962000  0.137038000
     0.137038000  0.137038000  0.862962000
     0.862962000  0.137038000  0.862962000
     0.137038000  0.862962000  0.137038000
     0.137038000  0.862962000  0.862962000
     0.862962000  0.137038000  0.137038000
     0.387038000  0.387038000  0.112962000
     0.112962000  0.112962000  0.387038000
     0.387038000  0.112962000  0.387038000
     0.112962000  0.387038000  0.112962000
     0.112962000  0.387038000  0.387038000
     0.387038000  0.112962000  0.112962000
     0.125000000  0.625000000  0.625000000
     0.625000000  0.125000000  0.625000000
     0.625000000  0.625000000  0.125000000
     0.625000000  0.625000000  0.625000000
     0.625000000  0.125000000  0.125000000
     0.125000000  0.625000000  0.125000000
     0.125000000  0.125000000  0.625000000
     0.125000000  0.125000000  0.125000000

  ion indices of the primitive-cell ions
   primitive index   ion index
                 1           1
                 2           2
                 3           3
                 4           4
                 5           5
                 6           6
                 7           7
                 8           8
                 9           9
                10          10
                11          11
                12          12
                13          13
                14          14
                15          15
                16          16
                17          17
                18          18
                19          19
                20          20
                21          21
                22          22
                23          23
                24          24
                25          25
                26          26
                27          27
                28          28
                29          29
                30          30
                31          31
                32          32
                33          33
                34          34
                35          35
                36          36
                37          37
                38          38
                39          39
                40          40
                41          41
                42          42
                43          43
                44          44
                45          45
                46          46

----------------------------------------------------------------------------------------

 
 
 KPOINTS: Kpoints from vasprun.xml                

Automatic generation of k-mesh.
 Grid dimensions read from file:
 generate k-points for:    2    2    2

 Generating k-lattice:

  Cartesian coordinates                     Fractional coordinates (reciprocal lattice)
    -0.031677504  0.031677504  0.031677504     0.500000000  0.000000000  0.000000000
     0.031677504 -0.031677504  0.031677504     0.000000000  0.500000000 -0.000000000
     0.031677504  0.031677504 -0.031677504    -0.000000000 -0.000000000  0.500000000

  Length of vectors
     0.054867046  0.054867046  0.054867046

  Shift w.r.t. Gamma in fractional coordinates (k-lattice)
     0.000000000  0.000000000  0.000000000

 
 Subroutine IBZKPT returns following result:
 ===========================================
 
 Found      3 irreducible k-points:
 
 Following reciprocal coordinates:
            Coordinates               Weight
  0.000000  0.000000  0.000000      1.000000
  0.500000  0.000000  0.000000      4.000000
  0.500000  0.500000  0.000000      3.000000
 
 Following cartesian coordinates:
            Coordinates               Weight
  0.000000  0.000000  0.000000      1.000000
 -0.031678  0.031678  0.031678      4.000000
  0.000000  0.000000  0.063355      3.000000
 


--------------------------------------------------------------------------------------------------------




 Dimension of arrays:
   k-points           NKPTS =      3   k-points in BZ     NKDIM =      3   number of bands    NBANDS=    380
   number of dos      NEDOS =    301   number of ions     NIONS =     46
   non local maximal  LDIM  =      8   non local SUM 2l+1 LMDIM =     32
   total plane-waves  NPLWV = 592704
   max r-space proj   IRMAX =  10931   max aug-charges    IRDMAX= 285486
   dimension x,y,z NGX =    84 NGY =   84 NGZ =   84
   dimension x,y,z NGXF=   168 NGYF=  168 NGZF=  168
   support grid    NGXF=   336 NGYF=  336 NGZF=  336
   ions per type =               2  40   4
   NGX,Y,Z   is equivalent  to a cutoff of  12.51, 12.51, 12.51 a.u.
   NGXF,Y,Z  is equivalent  to a cutoff of  25.02, 25.02, 25.02 a.u.

 SYSTEM =  unknown system                          
 POSCAR =  Gd2 Cd40 Ni4                            

 Startparameter for this run:
   NWRITE =      2    write-flag & timer
   PREC   = accura    normal or accurate (medium, high low for compatibility)
   ISTART =      0    job   : 0-new  1-cont  2-samecut
   ICHARG =      0    charge: 1-file 2-atom 10-const
   ISPIN  =      2    spin polarized calculation?
   LNONCOLLINEAR =      F non collinear calculations
   LSORBIT =      F    spin-orbit coupling
   INIWAV =      1    electr: 0-lowe 1-rand  2-diag
   LASPH  =      T    aspherical Exc in radial PAW
 Electronic Relaxation 1
   ENCUT  =  520.0 eV  38.22 Ry    6.18 a.u.  20.75 20.75 20.75*2*pi/ulx,y,z
   ENINI  =  520.0     initial cutoff
   ENAUG  =  703.4 eV  augmentation charge cutoff
   NELM   =   1000;   NELMIN=  2; NELMDL= -5     # of ELM steps 
   EDIFF  = 0.2E-02   stopping-criterion for ELM
   LREAL  =      T    real-space projection
   NLSPLINE    = F    spline interpolate recip. space projectors
   LCOMPAT=      F    compatible to vasp.4.4
   GGA_COMPAT  = T    GGA compatible to vasp.4.4-vasp.4.6
   LMAXPAW     = -100 max onsite density
   LMAXMIX     =    2 max onsite mixed and CHGCAR
   VOSKOWN=      0    Vosko Wilk Nusair interpolation
   ROPT   =   -0.00025  -0.00025  -0.00025
 Ionic relaxation
   EDIFFG = 0.2E-01   stopping-criterion for IOM
   NSW    =      0    number of steps for IOM
   NBLOCK =      1;   KBLOCK =      1    inner block; outer block 
   IBRION =     -1    ionic relax: 0-MD 1-quasi-New 2-CG
   NFREE  =      0    steps in history (QN), initial steepest desc. (CG)
   ISIF   =      3    stress and relaxation
   IWAVPR =     10    prediction:  0-non 1-charg 2-wave 3-comb
   ISYM   =      2    0-nonsym 1-usesym 2-fastsym
   LCORR  =      T    Harris-Foulkes like correction to forces

   POTIM  = 0.5000    time-step for ionic-motion
   TEIN   =    0.0    initial temperature
   TEBEG  =    0.0;   TEEND  =   0.0 temperature during run
   SMASS  =  -3.00    Nose mass-parameter (am)
   estimated Nose-frequenzy (Omega)   =  0.10E-29 period in steps = 0.13E+47 mass=  -0.285E-26a.u.
   SCALEE = 1.0000    scale energy and forces
   NPACO  =    256;   APACO  = 10.0  distance and # of slots for P.C.
   PSTRESS=    0.0 pullay stress

  Mass of Ions in am
   POMASS = 157.25112.41 58.69
  Ionic Valenz
   ZVAL   =  18.00 12.00 16.00
  Atomic Wigner-Seitz radii
   RWIGS  =  -1.00 -1.00 -1.00
  virtual crystal weights 
   VCA    =   1.00  1.00  1.00
   NELECT =     580.0000    total number of electrons
   NUPDOWN=      -1.0000    fix difference up-down

 DOS related values:
   EMIN   =  10.00;   EMAX   =-10.00  energy-range for DOS
   EFERMI =   0.00
   ISMEAR =     0;   SIGMA  =   0.05  broadening in eV -4-tet -1-fermi 0-gaus

 Electronic relaxation 2 (details)
   IALGO  =     38    algorithm
   LDIAG  =      T    sub-space diagonalisation (order eigenvalues)
   LSUBROT=      F    optimize rotation matrix (better conditioning)
   TURBO    =      0    0=normal 1=particle mesh
   IRESTART =      0    0=no restart 2=restart with 2 vectors
   NREBOOT  =      0    no. of reboots
   NMIN     =      0    reboot dimension
   EREF     =   0.00    reference energy to select bands
   IMIX   =      4    mixing-type and parameters
     AMIX     =   0.40;   BMIX     =  1.00
     AMIX_MAG =   1.60;   BMIX_MAG =  1.00
     AMIN     =   0.10
     WC   =   100.;   INIMIX=   1;  MIXPRE=   1;  MAXMIX= -45

 Intra band minimization:
   WEIMIN = 0.0000     energy-eigenvalue tresh-hold
   EBREAK =  0.15E-05  absolut break condition
   DEPER  =   0.30     relativ break condition  

   TIME   =   0.40     timestep for ELM

  volume/ion in A,a.u.               =      21.37       144.22
  Fermi-wavevector in a.u.,A,eV,Ry     =   1.373046  2.594681 25.650458  1.885255
  Thomas-Fermi vector in A             =   2.498598
 
 Write flags
   LWAVE        =      F    write WAVECAR
   LDOWNSAMPLE  =      F    k-point downsampling of WAVECAR
   LCHARG       =      T    write CHGCAR
   LVTOT        =      F    write LOCPOT, total local potential
   LVHAR        =      T    write LOCPOT, Hartree potential only
   LELF         =      T    write electronic localiz. function (ELF)
   LORBIT       =     11    0 simple, 1 ext, 2 COOP (PROOUT), +10 PAW based schemes


 Dipole corrections
   LMONO  =      F    monopole corrections only (constant potential shift)
   LDIPOL =      F    correct potential (dipole corrections)
   IDIPOL =      0    1-x, 2-y, 3-z, 4-all directions 
   EPSILON=  1.0000000 bulk dielectric constant

 Exchange correlation treatment:
   GGA     =    --    GGA type
   LEXCH   =     8    internal setting for exchange type
   LIBXC   =     F    Libxc                    
   VOSKOWN =     0    Vosko Wilk Nusair interpolation
   LHFCALC =     F    Hartree Fock is set to
   LHFONE  =     F    Hartree Fock one center treatment
   AEXX    =    0.0000 exact exchange contribution

 Linear response parameters
   LEPSILON=     F    determine dielectric tensor
   LRPA    =     F    only Hartree local field effects (RPA)
   LNABLA  =     F    use nabla operator in PAW spheres
   LVEL    =     F    velocity operator in full k-point grid
   CSHIFT  =0.1000    complex shift for real part using Kramers Kronig
   OMEGAMAX=  -1.0    maximum frequency
   DEG_THRESHOLD= 0.2000000E-02 threshold for treating states as degnerate
   RTIME   =   -0.100 relaxation time in fs
  (WPLASMAI=    0.000 imaginary part of plasma frequency in eV, 0.658/RTIME)
   DFIELD  = 0.0000000 0.0000000 0.0000000 field for delta impulse in time
 
  Optional k-point grid parameters
   LKPOINTS_OPT  =     F    use optional k-point grid
   KPOINTS_OPT_MODE=     1    mode for optional k-point grid
 
 Orbital magnetization related:
   ORBITALMAG=     F  switch on orbital magnetization
   LCHIMAG   =     F  perturbation theory with respect to B field
   DQ        =  0.001000  dq finite difference perturbation B field
   LLRAUG    =     F  two centre corrections for induced B field



--------------------------------------------------------------------------------------------------------


 Static calculation
 charge density and potential will be updated during run
 spin polarized calculation
 Variant of blocked Davidson
 Davidson routine will perform the subspace rotation
 perform sub-space diagonalisation
    after iterative eigenvector-optimisation
 modified Broyden-mixing scheme, WC =      100.0
 initial mixing is a Kerker type mixing with AMIX =  0.4000 and BMIX =      1.0000
 Hartree-type preconditioning will be used
 using additional bands            90
 real space projection scheme for non local part
 use partial core corrections
 calculate Harris-corrections to forces 
   (improved forces if not selfconsistent)
 use gradient corrections 
 use of overlap-Matrix (Vanderbilt PP)
 Gauss-broadening in eV      SIGMA  =   0.05


--------------------------------------------------------------------------------------------------------


  energy-cutoff  :      520.00
  volume of cell :      983.10
      direct lattice vectors                 reciprocal lattice vectors
     0.000000000  7.892036000  7.892036000    -0.063355008  0.063355008  0.063355008
     7.892036000  0.000000000  7.892036000     0.063355008 -0.063355008  0.063355008
     7.892036000  7.892036000  0.000000000     0.063355008  0.063355008 -0.063355008

  length of vectors
    11.161024346 11.161024346 11.161024346     0.109734092  0.109734092  0.109734092


 
 k-points in units of 2pi/SCALE and weight: Kpoints from vasprun.xml                
   0.00000000  0.00000000  0.00000000       0.125
  -0.03167750  0.03167750  0.03167750       0.500
   0.00000000  0.00000000  0.06335501       0.375
 
 k-points in reciprocal lattice and weights: Kpoints from vasprun.xml                
   0.00000000  0.00000000  0.00000000       0.125
   0.50000000  0.00000000  0.00000000       0.500
   0.50000000  0.50000000  0.00000000       0.375
 
 position of ions in fractional coordinates (direct lattice) 
   0.50000000  0.50000000  0.50000000
   0.75000000  0.75000000  0.75000000
   0.56818400  0.30178900  0.30178900
   0.30178900  0.56818400  0.82823800
   0.30178900  0.82823800  0.56818400
   0.82823800  0.30178900  0.30178900
   0.30178900  0.30178900  0.56818400
   0.56818400  0.82823800  0.30178900
   0.82823800  0.56818400  0.30178900
   0.30178900  0.30178900  0.82823800
   0.30178900  0.56818400  0.30178900
   0.82823800  0.30178900  0.56818400
   0.56818400  0.30178900  0.82823800
   0.30178900  0.82823800  0.30178900
   0.68181600  0.94821100  0.94821100
   0.94821100  0.68181600  0.42176200
   0.94821100  0.42176200  0.68181600
   0.42176200  0.94821100  0.94821100
   0.94821100  0.94821100  0.68181600
   0.68181600  0.42176200  0.94821100
   0.42176200  0.68181600  0.94821100
   0.94821100  0.94821100  0.42176200
   0.94821100  0.68181600  0.94821100
   0.42176200  0.94821100  0.68181600
   0.68181600  0.94821100  0.42176200
   0.94821100  0.42176200  0.94821100
   0.86296200  0.86296200  0.13703800
   0.13703800  0.13703800  0.86296200
   0.86296200  0.13703800  0.86296200
   0.13703800  0.86296200  0.13703800
   0.13703800  0.86296200  0.86296200
   0.86296200  0.13703800  0.13703800
   0.38703800  0.38703800  0.11296200
   0.11296200  0.11296200  0.38703800
   0.38703800  0.11296200  0.38703800
   0.11296200  0.38703800  0.11296200
   0.11296200  0.38703800  0.38703800
   0.38703800  0.11296200  0.11296200
   0.12500000  0.62500000  0.62500000
   0.62500000  0.12500000  0.62500000
   0.62500000  0.62500000  0.12500000
   0.62500000  0.62500000  0.62500000
   0.62500000  0.12500000  0.12500000
   0.12500000  0.62500000  0.12500000
   0.12500000  0.12500000  0.62500000
   0.12500000  0.12500000  0.12500000
 
 position of ions in cartesian coordinates  (Angst):
   7.89203600  7.89203600  7.89203600
  11.83805400 11.83805400 11.83805400
   4.76345930  6.86585824  6.86585824
  11.02061270  8.91821376  6.86585824
  11.02061270  6.86585824  8.91821376
   4.76345930  8.91821376  8.91821376
   6.86585824  6.86585824  4.76345930
   8.91821376  6.86585824 11.02061270
   6.86585824  8.91821376 11.02061270
   8.91821376  8.91821376  4.76345930
   6.86585824  4.76345930  6.86585824
   6.86585824 11.02061270  8.91821376
   8.91821376 11.02061270  6.86585824
   8.91821376  4.76345930  8.91821376
  14.96663070 12.86423176 12.86423176
   8.70947730 10.81187624 12.86423176
   8.70947730 12.86423176 10.81187624
  14.96663070 10.81187624 10.81187624
  12.86423176 12.86423176 14.96663070
  10.81187624 12.86423176  8.70947730
  12.86423176 10.81187624  8.70947730
  10.81187624 10.81187624 14.96663070
  12.86423176 14.96663070 12.86423176
  12.86423176  8.70947730 10.81187624
  10.81187624  8.70947730 12.86423176
  10.81187624 14.96663070 10.81187624
   7.89203600  7.89203600 13.62105434
   7.89203600  7.89203600  2.16301766
   7.89203600 13.62105434  7.89203600
   7.89203600  2.16301766  7.89203600
  13.62105434  7.89203600  7.89203600
   2.16301766  7.89203600  7.89203600
   3.94601800  3.94601800  6.10903566
   3.94601800  3.94601800  1.78300034
   3.94601800  6.10903566  3.94601800
   3.94601800  1.78300034  3.94601800
   6.10903566  3.94601800  3.94601800
   1.78300034  3.94601800  3.94601800
   9.86504500  5.91902700  5.91902700
   5.91902700  9.86504500  5.91902700
   5.91902700  5.91902700  9.86504500
   9.86504500  9.86504500  9.86504500
   1.97300900  5.91902700  5.91902700
   5.91902700  1.97300900  5.91902700
   5.91902700  5.91902700  1.97300900
   1.97300900  1.97300900  1.97300900
 


--------------------------------------------------------------------------------------------------------


 k-point   1 :   0.0000 0.0000 0.0000  plane waves:   26469
 k-point   2 :   0.5000 0.0000 0.0000  plane waves:   26500
 k-point   3 :   0.5000 0.5000 0.0000  plane waves:   26526

 maximum and minimum number of plane-waves per node :     26526    26469

 maximum number of plane-waves:     26526
 maximum index in each direction: 
   IXMAX=   20   IYMAX=   20   IZMAX=   20
   IXMIN=  -21   IYMIN=  -21   IZMIN=  -20


 serial   3D FFT for wavefunctions
 parallel 3D FFT for charge:
    minimum data exchange during FFTs selected (reduces bandwidth)


 total amount of memory used by VASP MPI-rank0   682938. kBytes
=======================================================================

   base      :      30000. kBytes
   nonlr-proj:      69632. kBytes
   fftplans  :     176069. kBytes
   grid      :     152974. kBytes
   one-center:       4521. kBytes
   wavefun   :     249742. kBytes
 
     INWAV:  cpu time      0.0002: real time      0.0006
 Broyden mixing: mesh for mixing (old mesh)
   NGX = 41   NGY = 41   NGZ = 41
  (NGX  =168   NGY  =168   NGZ  =168)
  gives a total of  68921 points

 charge density for first step will be calculated from the start-wavefunctions


--------------------------------------------------------------------------------------------------------


 Maximum index for non-local projection operator         10473
 Maximum index for augmentation-charges         69115 (set IRDMAX)


--------------------------------------------------------------------------------------------------------


 initial charge from wavefunction
 First call to EWALD:  gamma=   0.178
 Maximum number of real-space cells 3x 3x 3
 Maximum number of reciprocal cells 3x 3x 3

    FEWALD:  cpu time      0.0046: real time      0.0046


--------------------------------------- Iteration      1(   1)  ---------------------------------------


    POTLOK:  cpu time      0.1349: real time      0.1714
    SETDIJ:  cpu time      6.6071: real time      6.6106
     EDDAV:  cpu time      4.1288: real time      4.1407
       DOS:  cpu time      0.0007: real time      0.0007
    --------------------------------------------
      LOOP:  cpu time     10.8715: real time     10.9234

 eigenvalue-minimisations  :  8408
 total energy-change (2. order) :-0.2298514E+05  (-0.6957622E+05)
 number of electron     580.0000001 magnetization       0.0000000
 augmentation part       15.7267325 magnetization       0.0262615

 Free energy of the ion-electron system (eV)
  ---------------------------------------------------
  alpha Z        PSCENC =      5000.92662879
  Ewald energy   TEWEN  =    -54162.92661623
  -Hartree energ DENC   =      -680.67299140
  -exchange      EXHF   =         0.00000000
  -V(xc)+E(xc)   XCENC  =       281.51559921
  PAW double counting   =   6225354.72157763 -6224491.10905948
  entropy T*S    EENTRO =        -0.00503211
  eigenvalues    EBANDS =    -46114.06547441
  atomic energy  EATOM  =     71826.47467485
  Solvation  Ediel_sol  =         0.00000000
  ---------------------------------------------------
  free energy    TOTEN  =    -22985.14069316 eV

  energy without entropy =   -22985.13566105  energy(sigma->0) =   -22985.13817710


--------------------------------------------------------------------------------------------------------




--------------------------------------- Iteration      1(   2)  ---------------------------------------


     EDDAV:  cpu time      3.3021: real time      3.3043
       DOS:  cpu time      0.0006: real time      0.0006
    --------------------------------------------
      LOOP:  cpu time      3.3028: real time      3.3049

 eigenvalue-minimisations  :  6696
 total energy-change (2. order) :-0.9229074E+04  (-0.8889632E+04)
 number of electron     580.0000001 magnetization       0.0000000
 augmentation part       15.7267325 magnetization       0.0262615

 Free energy of the ion-electron system (eV)
  ---------------------------------------------------
  alpha Z        PSCENC =      5000.92662879
  Ewald energy   TEWEN  =    -54162.92661623
  -Hartree energ DENC   =      -680.67299140
  -exchange      EXHF   =         0.00000000
  -V(xc)+E(xc)   XCENC  =       281.51559921
  PAW double counting   =   6225354.72157763 -6224491.10905948
  entropy T*S    EENTRO =        -0.02048940
  eigenvalues    EBANDS =    -55343.12362872
  atomic energy  EATOM  =     71826.47467485
  Solvation  Ediel_sol  =         0.00000000
  ---------------------------------------------------
  free energy    TOTEN  =    -32214.21430476 eV

  energy without entropy =   -32214.19381536  energy(sigma->0) =   -32214.20406006


--------------------------------------------------------------------------------------------------------




--------------------------------------- Iteration      1(   3)  ---------------------------------------


     EDDAV:  cpu time      3.6575: real time      3.6598
       DOS:  cpu time      0.0006: real time      0.0006
    --------------------------------------------
      LOOP:  cpu time      3.6581: real time      3.6604

 eigenvalue-minimisations  :  7536
 total energy-change (2. order) :-0.1882940E+04  (-0.1448621E+04)
 number of electron     580.0000001 magnetization       0.0000000
 augmentation part       15.7267325 magnetization       0.0262615

 Free energy of the ion-electron system (eV)
  ---------------------------------------------------
  alpha Z        PSCENC =      5000.92662879
  Ewald energy   TEWEN  =    -54162.92661623
  -Hartree energ DENC   =      -680.67299140
  -exchange      EXHF   =         0.00000000
  -V(xc)+E(xc)   XCENC  =       281.51559921
  PAW double counting   =   6225354.72157763 -6224491.10905948
  entropy T*S    EENTRO =        -0.00930509
  eigenvalues    EBANDS =    -57226.07529339
  atomic energy  EATOM  =     71826.47467485
  Solvation  Ediel_sol  =         0.00000000
  ---------------------------------------------------
  free energy    TOTEN  =    -34097.15478511 eV

  energy without entropy =   -34097.14548003  energy(sigma->0) =   -34097.15013257


--------------------------------------------------------------------------------------------------------




--------------------------------------- Iteration      1(   4)  ---------------------------------------


     EDDAV:  cpu time      4.3076: real time      4.3098
       DOS:  cpu time      0.0007: real time      0.0007
    --------------------------------------------
      LOOP:  cpu time      4.3083: real time      4.3104

 eigenvalue-minimisations  :  8952
 total energy-change (2. order) :-0.5972707E+03  (-0.5233461E+03)
 number of electron     580.0000001 magnetization       0.0000000
 augmentation part       15.7267325 magnetization       0.0262615

 Free energy of the ion-electron system (eV)
  ---------------------------------------------------
  alpha Z        PSCENC =      5000.92662879
  Ewald energy   TEWEN  =    -54162.92661623
  -Hartree energ DENC   =      -680.67299140
  -exchange      EXHF   =         0.00000000
  -V(xc)+E(xc)   XCENC  =       281.51559921
  PAW double counting   =   6225354.72157763 -6224491.10905948
  entropy T*S    EENTRO =        -0.01189933
  eigenvalues    EBANDS =    -57823.34337431
  atomic energy  EATOM  =     71826.47467485
  Solvation  Ediel_sol  =         0.00000000
  ---------------------------------------------------
  free energy    TOTEN  =    -34694.42546027 eV

  energy without entropy =   -34694.41356095  energy(sigma->0) =   -34694.41951061


--------------------------------------------------------------------------------------------------------




--------------------------------------- Iteration      1(   5)  ---------------------------------------


     EDDAV:  cpu time      4.3311: real time      4.3336
       DOS:  cpu time      0.0006: real time      0.0006
    CHARGE:  cpu time      0.7300: real time      0.7303
    MIXING:  cpu time      0.0122: real time      0.0123
    --------------------------------------------
      LOOP:  cpu time      5.0739: real time      5.0767

 eigenvalue-minimisations  :  9000
 total energy-change (2. order) :-0.1216187E+03  (-0.1118178E+03)
 number of electron     580.0000009 magnetization       0.5302957
 augmentation part      308.7821231 magnetization      -0.5042370

 Broyden mixing:
  rms(total) = 0.15508E+04    rms(broyden)= 0.15508E+04
  rms(prec ) = 0.15538E+04
  weight for this iteration     100.00

 Free energy of the ion-electron system (eV)
  ---------------------------------------------------
  alpha Z        PSCENC =      5000.92662879
  Ewald energy   TEWEN  =    -54162.92661623
  -Hartree energ DENC   =      -680.67299140
  -exchange      EXHF   =         0.00000000
  -V(xc)+E(xc)   XCENC  =       281.51559921
  PAW double counting   =   6225354.72157763 -6224491.10905948
  entropy T*S    EENTRO =        -0.00775908
  eigenvalues    EBANDS =    -57944.96620817
  atomic energy  EATOM  =     71826.47467485
  Solvation  Ediel_sol  =         0.00000000
  ---------------------------------------------------
  free energy    TOTEN  =    -34816.04415388 eV

  energy without entropy =   -34816.03639481  energy(sigma->0) =   -34816.04027435


--------------------------------------------------------------------------------------------------------




--------------------------------------- Iteration      1(   6)  ---------------------------------------


    POTLOK:  cpu time      0.0208: real time      0.0214
    SETDIJ:  cpu time      6.5761: real time      6.5791
     EDDAV:  cpu time      3.0326: real time      3.0345
       DOS:  cpu time      0.0006: real time      0.0006
    CHARGE:  cpu time      0.7338: real time      0.7344
    MIXING:  cpu time      0.0110: real time      0.0137
    --------------------------------------------
      LOOP:  cpu time     10.3749: real time     10.3837

 eigenvalue-minimisations  :  5936
 total energy-change (2. order) : 0.2689825E+05  (-0.9147222E+04)
 number of electron     580.0000012 magnetization       0.4196101
 augmentation part      373.2431378 magnetization       0.2813708

 Broyden mixing:
  rms(total) = 0.60231E+03    rms(broyden)= 0.60231E+03
  rms(prec ) = 0.60356E+03
  weight for this iteration     100.00

 eigenvalues of (default mixing * dielectric matrix)
  average eigenvalue GAMMA=   0.7252
  0.7252

 Free energy of the ion-electron system (eV)
  ---------------------------------------------------
  alpha Z        PSCENC =      5000.92662879
  Ewald energy   TEWEN  =    -54162.92661623
  -Hartree energ DENC   =     -7783.62323061
  -exchange      EXHF   =         0.00000000
  -V(xc)+E(xc)   XCENC  =       380.90612899
  PAW double counting   = 153846348.27368891******************
  entropy T*S    EENTRO =        -0.00598527
  eigenvalues    EBANDS =    -23194.54058123
  atomic energy  EATOM  =     71826.47467485
  Solvation  Ediel_sol  =         0.00000000
  ---------------------------------------------------
  free energy    TOTEN  =     -7917.79870103 eV

  energy without entropy =    -7917.79271576  energy(sigma->0) =    -7917.79570840


--------------------------------------------------------------------------------------------------------




--------------------------------------- Iteration      1(   7)  ---------------------------------------


    POTLOK:  cpu time      0.0208: real time      0.0215
    SETDIJ:  cpu time      6.5890: real time      6.5918
     EDDAV:  cpu time      2.7561: real time      2.7573
       DOS:  cpu time      0.0006: real time      0.0006
    CHARGE:  cpu time      0.7279: real time      0.7283
    MIXING:  cpu time      0.0125: real time      0.0125
    --------------------------------------------
      LOOP:  cpu time     10.1069: real time     10.1119

 eigenvalue-minimisations  :  5212
 total energy-change (2. order) : 0.4949730E+04  (-0.9578603E+03)
 number of electron     580.0000015 magnetization       0.4038588
 augmentation part      312.3480321 magnetization       0.1235932

 Broyden mixing:
  rms(total) = 0.51038E+03    rms(broyden)= 0.51038E+03
  rms(prec ) = 0.51123E+03
  weight for this iteration     100.00

 eigenvalues of (default mixing * dielectric matrix)
  average eigenvalue GAMMA=   0.6893
  0.6893  0.6893

 Free energy of the ion-electron system (eV)
  ---------------------------------------------------
  alpha Z        PSCENC =      5000.92662879
  Ewald energy   TEWEN  =    -54162.92661623
  -Hartree energ DENC   =    -11907.56537395
  -exchange      EXHF   =         0.00000000
  -V(xc)+E(xc)   XCENC  =       494.24605127
  PAW double counting   =  82059741.74302782-82060534.10399868
  entropy T*S    EENTRO =        -0.01261741
  eigenvalues    EBANDS =    -13426.85069771
  atomic energy  EATOM  =     71826.47467485
  Solvation  Ediel_sol  =         0.00000000
  ---------------------------------------------------
  free energy    TOTEN  =     -2968.06892125 eV

  energy without entropy =    -2968.05630384  energy(sigma->0) =    -2968.06261254


--------------------------------------------------------------------------------------------------------




--------------------------------------- Iteration      1(   8)  ---------------------------------------


    POTLOK:  cpu time      0.0208: real time      0.0212
    SETDIJ:  cpu time      6.5819: real time      6.5846
     EDDAV:  cpu time      2.7342: real time      2.7360
       DOS:  cpu time      0.0007: real time      0.0007
    CHARGE:  cpu time      0.7307: real time      0.7312
    MIXING:  cpu time      0.0121: real time      0.0121
    --------------------------------------------
      LOOP:  cpu time     10.0802: real time     10.0857

 eigenvalue-minimisations  :  5152
 total energy-change (2. order) : 0.5151079E+03  (-0.4731237E+03)
 number of electron     580.0000009 magnetization       0.3197761
 augmentation part      312.0762125 magnetization       0.7143540

 Broyden mixing:
  rms(total) = 0.38702E+03    rms(broyden)= 0.38702E+03
  rms(prec ) = 0.38801E+03
  weight for this iteration     100.00

 eigenvalues of (default mixing * dielectric matrix)
  average eigenvalue GAMMA=   0.5523
  0.7129  0.7129  0.2312

 Free energy of the ion-electron system (eV)
  ---------------------------------------------------
  alpha Z        PSCENC =      5000.92662879
  Ewald energy   TEWEN  =    -54162.92661623
  -Hartree energ DENC   =    -11980.50249005
  -exchange      EXHF   =         0.00000000
  -V(xc)+E(xc)   XCENC  =       497.48084883
  PAW double counting   =  55864650.76676781-55865335.53277361
  entropy T*S    EENTRO =        -0.02898372
  eigenvalues    EBANDS =    -12949.61908043
  atomic energy  EATOM  =     71826.47467485
  Solvation  Ediel_sol  =         0.00000000
  ---------------------------------------------------
  free energy    TOTEN  =     -2452.96102377 eV

  energy without entropy =    -2452.93204004  energy(sigma->0) =    -2452.94653190


--------------------------------------------------------------------------------------------------------




--------------------------------------- Iteration      1(   9)  ---------------------------------------


    POTLOK:  cpu time      0.0209: real time      0.0219
    SETDIJ:  cpu time      6.6205: real time      6.6243
     EDDAV:  cpu time      2.9866: real time      2.9883
       DOS:  cpu time      0.0007: real time      0.0007
    CHARGE:  cpu time      0.7307: real time      0.7311
    MIXING:  cpu time      0.0112: real time      0.0112
    --------------------------------------------
      LOOP:  cpu time     10.3706: real time     10.3774

 eigenvalue-minimisations  :  5800
 total energy-change (2. order) : 0.6926844E+03  (-0.9437050E+02)
 number of electron     580.0000010 magnetization       0.2854617
 augmentation part      311.2140666 magnetization       0.1595524

 Broyden mixing:
  rms(total) = 0.37743E+03    rms(broyden)= 0.37743E+03
  rms(prec ) = 0.37813E+03
  weight for this iteration     100.00

 eigenvalues of (default mixing * dielectric matrix)
  average eigenvalue GAMMA=   0.4713
  0.6558  0.6558  0.2867  0.2867

 Free energy of the ion-electron system (eV)
  ---------------------------------------------------
  alpha Z        PSCENC =      5000.92662879
  Ewald energy   TEWEN  =    -54162.92661623
  -Hartree energ DENC   =    -12571.47125809
  -exchange      EXHF   =         0.00000000
  -V(xc)+E(xc)   XCENC  =       513.14180023
  PAW double counting   =  47882951.98256594-47883527.71106882
  entropy T*S    EENTRO =        -0.11412382
  eigenvalues    EBANDS =    -11790.57921596
  atomic energy  EATOM  =     71826.47467485
  Solvation  Ediel_sol  =         0.00000000
  ---------------------------------------------------
  free energy    TOTEN  =     -1760.27661313 eV

  energy without entropy =    -1760.16248930  energy(sigma->0) =    -1760.21955122


--------------------------------------------------------------------------------------------------------




--------------------------------------- Iteration      1(  10)  ---------------------------------------


    POTLOK:  cpu time      0.0208: real time      0.0212
    SETDIJ:  cpu time      6.5986: real time      6.6016
     EDDAV:  cpu time      2.9899: real time      2.9917
       DOS:  cpu time      0.0007: real time      0.0007
    CHARGE:  cpu time      0.7362: real time      0.7368
    MIXING:  cpu time      0.0125: real time      0.0125
    --------------------------------------------
      LOOP:  cpu time     10.3586: real time     10.3645

 eigenvalue-minimisations  :  5812
 total energy-change (2. order) : 0.1321604E+03  (-0.1984060E+02)
 number of electron     580.0000011 magnetization       0.2573011
 augmentation part      334.7890396 magnetization       0.2534387

 Broyden mixing:
  rms(total) = 0.37791E+03    rms(broyden)= 0.37791E+03
  rms(prec ) = 0.37850E+03
  weight for this iteration     100.00

 eigenvalues of (default mixing * dielectric matrix)
  average eigenvalue GAMMA=   0.6452
  1.0125  1.0125  0.6392  0.3385  0.2231

 Free energy of the ion-electron system (eV)
  ---------------------------------------------------
  alpha Z        PSCENC =      5000.92662879
  Ewald energy   TEWEN  =    -54162.92661623
  -Hartree energ DENC   =    -12873.31769208
  -exchange      EXHF   =         0.00000000
  -V(xc)+E(xc)   XCENC  =       521.75686363
  PAW double counting   =  46945035.29195048-46945598.40572283
  entropy T*S    EENTRO =        -0.02295829
  eigenvalues    EBANDS =    -11377.89330304
  atomic energy  EATOM  =     71826.47467485
  Solvation  Ediel_sol  =         0.00000000
  ---------------------------------------------------
  free energy    TOTEN  =     -1628.11617473 eV

  energy without entropy =    -1628.09321644  energy(sigma->0) =    -1628.10469559


--------------------------------------------------------------------------------------------------------




--------------------------------------- Iteration      1(  11)  ---------------------------------------


    POTLOK:  cpu time      0.0208: real time      0.0213
    SETDIJ:  cpu time      6.5867: real time      6.5893
     EDDAV:  cpu time      3.0378: real time      3.0396
       DOS:  cpu time      0.0007: real time      0.0007
    CHARGE:  cpu time      0.7268: real time      0.7272
    MIXING:  cpu time      0.0123: real time      0.0123
    --------------------------------------------
      LOOP:  cpu time     10.3851: real time     10.3905

 eigenvalue-minimisations  :  5888
 total energy-change (2. order) :-0.4545145E+03  (-0.1203806E+04)
 number of electron     580.0000010 magnetization       0.2740342
 augmentation part      294.5637831 magnetization       0.1978807

 Broyden mixing:
  rms(total) = 0.34411E+03    rms(broyden)= 0.34411E+03
  rms(prec ) = 0.34521E+03
  weight for this iteration     100.00

 eigenvalues of (default mixing * dielectric matrix)
  average eigenvalue GAMMA=   0.7114
  1.3409  1.3409  0.6872  0.3214  0.2890  0.2890

 Free energy of the ion-electron system (eV)
  ---------------------------------------------------
  alpha Z        PSCENC =      5000.92662879
  Ewald energy   TEWEN  =    -54162.92661623
  -Hartree energ DENC   =    -14960.79634675
  -exchange      EXHF   =         0.00000000
  -V(xc)+E(xc)   XCENC  =       587.18611125
  PAW double counting   =  38140512.57787506-38141455.78450974
  entropy T*S    EENTRO =        -0.01873520
  eigenvalues    EBANDS =     -9430.26976384
  atomic energy  EATOM  =     71826.47467485
  Solvation  Ediel_sol  =         0.00000000
  ---------------------------------------------------
  free energy    TOTEN  =     -2082.63068183 eV

  energy without entropy =    -2082.61194663  energy(sigma->0) =    -2082.62131423


--------------------------------------------------------------------------------------------------------




--------------------------------------- Iteration      1(  12)  ---------------------------------------


    POTLOK:  cpu time      0.0208: real time      0.0216
    SETDIJ:  cpu time      6.5963: real time      6.5990
     EDDAV:  cpu time      2.8590: real time      2.8604
       DOS:  cpu time      0.0007: real time      0.0007
    CHARGE:  cpu time      0.7276: real time      0.7281
    MIXING:  cpu time      0.0130: real time      0.0130
    --------------------------------------------
      LOOP:  cpu time     10.2174: real time     10.2228

 eigenvalue-minimisations  :  5520
 total energy-change (2. order) : 0.2596777E+03  (-0.4643015E+03)
 number of electron     580.0000012 magnetization       0.2279991
 augmentation part      265.0470758 magnetization      -0.0205104

 Broyden mixing:
  rms(total) = 0.25833E+03    rms(broyden)= 0.25833E+03
  rms(prec ) = 0.25955E+03
  weight for this iteration     100.00

 eigenvalues of (default mixing * dielectric matrix)
  average eigenvalue GAMMA=   0.8378
  1.8456  1.8456  0.7853  0.3928  0.3928  0.3676  0.2351

 Free energy of the ion-electron system (eV)
  ---------------------------------------------------
  alpha Z        PSCENC =      5000.92662879
  Ewald energy   TEWEN  =    -54162.92661623
  -Hartree energ DENC   =    -17173.55183439
  -exchange      EXHF   =         0.00000000
  -V(xc)+E(xc)   XCENC  =       646.89012754
  PAW double counting   =  23767739.77860712-23768415.17812558
  entropy T*S    EENTRO =        -0.03601489
  eigenvalues    EBANDS =     -7285.33043679
  atomic energy  EATOM  =     71826.47467485
  Solvation  Ediel_sol  =         0.00000000
  ---------------------------------------------------
  free energy    TOTEN  =     -1822.95298957 eV

  energy without entropy =    -1822.91697468  energy(sigma->0) =    -1822.93498213


--------------------------------------------------------------------------------------------------------




--------------------------------------- Iteration      1(  13)  ---------------------------------------


    POTLOK:  cpu time      0.0207: real time      0.0211
    SETDIJ:  cpu time      6.5765: real time      6.5795
     EDDAV:  cpu time      3.2958: real time      3.2981
       DOS:  cpu time      0.0007: real time      0.0007
    CHARGE:  cpu time      0.7331: real time      0.7336
    MIXING:  cpu time      0.0134: real time      0.0135
    --------------------------------------------
      LOOP:  cpu time     10.6402: real time     10.6464

 eigenvalue-minimisations  :  6496
 total energy-change (2. order) : 0.9108828E+03  (-0.3012443E+03)
 number of electron     580.0000012 magnetization       0.4117096
 augmentation part      279.7337075 magnetization      -0.2756458

 Broyden mixing:
  rms(total) = 0.10146E+03    rms(broyden)= 0.10146E+03
  rms(prec ) = 0.10455E+03
  weight for this iteration     100.00

 eigenvalues of (default mixing * dielectric matrix)
  average eigenvalue GAMMA=   0.8441
  1.9179  1.9179  0.7168  0.7168  0.4726  0.4726  0.2692  0.2692

 Free energy of the ion-electron system (eV)
  ---------------------------------------------------
  alpha Z        PSCENC =      5000.92662879
  Ewald energy   TEWEN  =    -54162.92661623
  -Hartree energ DENC   =    -19191.57458733
  -exchange      EXHF   =         0.00000000
  -V(xc)+E(xc)   XCENC  =       718.63882528
  PAW double counting   =   5240052.14782640 -5240075.23822267
  entropy T*S    EENTRO =        -0.02162325
  eigenvalues    EBANDS =     -5080.49708503
  atomic energy  EATOM  =     71826.47467485
  Solvation  Ediel_sol  =         0.00000000
  ---------------------------------------------------
  free energy    TOTEN  =      -912.07017919 eV

  energy without entropy =     -912.04855594  energy(sigma->0) =     -912.05936757


--------------------------------------------------------------------------------------------------------




--------------------------------------- Iteration      1(  14)  ---------------------------------------


    POTLOK:  cpu time      0.0209: real time      0.0215
    SETDIJ:  cpu time      6.5852: real time      6.5884
     EDDAV:  cpu time      3.5263: real time      3.5282
       DOS:  cpu time      0.0007: real time      0.0007
    CHARGE:  cpu time      0.7263: real time      0.7267
    MIXING:  cpu time      0.0131: real time      0.0131
    --------------------------------------------
      LOOP:  cpu time     10.8725: real time     10.8786

 eigenvalue-minimisations  :  7136
 total energy-change (2. order) : 0.3147602E+03  (-0.1045055E+04)
 number of electron     580.0000010 magnetization       0.3117972
 augmentation part      277.3528523 magnetization       0.4431952

 Broyden mixing:
  rms(total) = 0.80202E+02    rms(broyden)= 0.80202E+02
  rms(prec ) = 0.81544E+02
  weight for this iteration     100.00

 eigenvalues of (default mixing * dielectric matrix)
  average eigenvalue GAMMA=   0.8311
  1.8758  1.8758  0.8641  0.8641  0.5438  0.5438  0.3347  0.3347  0.2430

 Free energy of the ion-electron system (eV)
  ---------------------------------------------------
  alpha Z        PSCENC =      5000.92662879
  Ewald energy   TEWEN  =    -54162.92661623
  -Hartree energ DENC   =    -18981.13058384
  -exchange      EXHF   =         0.00000000
  -V(xc)+E(xc)   XCENC  =       720.77541590
  PAW double counting   =   3232086.51276776 -3232240.86648757
  entropy T*S    EENTRO =        -0.02280374
  eigenvalues    EBANDS =     -4847.05294151
  atomic energy  EATOM  =     71826.47467485
  Solvation  Ediel_sol  =         0.00000000
  ---------------------------------------------------
  free energy    TOTEN  =      -597.30994560 eV

  energy without entropy =     -597.28714186  energy(sigma->0) =     -597.29854373


--------------------------------------------------------------------------------------------------------




--------------------------------------- Iteration      1(  15)  ---------------------------------------


    POTLOK:  cpu time      0.0206: real time      0.0214
    SETDIJ:  cpu time      6.4205: real time      6.4233
     EDDAV:  cpu time      3.6861: real time      3.6882
       DOS:  cpu time      0.0007: real time      0.0007
    CHARGE:  cpu time      0.7297: real time      0.7300
    MIXING:  cpu time      0.0142: real time      0.0142
    --------------------------------------------
      LOOP:  cpu time     10.8718: real time     10.8777

 eigenvalue-minimisations  :  7584
 total energy-change (2. order) : 0.4703014E+02  (-0.1282793E+03)
 number of electron     580.0000009 magnetization       0.1959482
 augmentation part      246.4125233 magnetization       0.1678598

 Broyden mixing:
  rms(total) = 0.53268E+02    rms(broyden)= 0.53268E+02
  rms(prec ) = 0.56300E+02
  weight for this iteration     100.00

 eigenvalues of (default mixing * dielectric matrix)
  average eigenvalue GAMMA=   0.8064
  1.7672  1.7672  1.0137  1.0137  0.7339  0.4043  0.4043  0.3553  0.3553  0.2486

 Free energy of the ion-electron system (eV)
  ---------------------------------------------------
  alpha Z        PSCENC =      5000.92662879
  Ewald energy   TEWEN  =    -54162.92661623
  -Hartree energ DENC   =    -20250.30567925
  -exchange      EXHF   =         0.00000000
  -V(xc)+E(xc)   XCENC  =       763.65911283
  PAW double counting   =   1353312.83222027 -1353310.82087135
  entropy T*S    EENTRO =        -0.03092571
  eigenvalues    EBANDS =     -3730.08835387
  atomic energy  EATOM  =     71826.47467485
  Solvation  Ediel_sol  =         0.00000000
  ---------------------------------------------------
  free energy    TOTEN  =      -550.27980967 eV

  energy without entropy =     -550.24888396  energy(sigma->0) =     -550.26434682


--------------------------------------------------------------------------------------------------------




--------------------------------------- Iteration      1(  16)  ---------------------------------------


    POTLOK:  cpu time      0.0206: real time      0.0217
    SETDIJ:  cpu time      6.3730: real time      6.3753
     EDDAV:  cpu time      4.0857: real time      4.0873
       DOS:  cpu time      0.0007: real time      0.0007
    CHARGE:  cpu time      0.7406: real time      0.7410
    MIXING:  cpu time      0.0134: real time      0.0134
    --------------------------------------------
      LOOP:  cpu time     11.2340: real time     11.2393

 eigenvalue-minimisations  :  8456
 total energy-change (2. order) : 0.1682301E+03  (-0.2283435E+02)
 number of electron     580.0000009 magnetization       0.1701196
 augmentation part      271.8870068 magnetization       0.1459805

 Broyden mixing:
  rms(total) = 0.50484E+02    rms(broyden)= 0.50484E+02
  rms(prec ) = 0.52165E+02
  weight for this iteration     100.00

 eigenvalues of (default mixing * dielectric matrix)
  average eigenvalue GAMMA=   0.7780
  1.7590  1.7590  1.0737  1.0737  0.7554  0.4250  0.4250  0.4835  0.2849  0.2849
  0.2340

 Free energy of the ion-electron system (eV)
  ---------------------------------------------------
  alpha Z        PSCENC =      5000.92662879
  Ewald energy   TEWEN  =    -54162.92661623
  -Hartree energ DENC   =    -19494.11077258
  -exchange      EXHF   =         0.00000000
  -V(xc)+E(xc)   XCENC  =       740.71134606
[...]
  290        strnlr                                2.058021                            1   3
  291          rspher_all                            0.568850                          9   4
  292          phaser                                0.367840                         27   4
  293          rpro_isp                              1.118119                         27   4
  294            fftwav_mpi                            0.184545                     5130   5
  295              fftwav                                0.178074                   5130   6
  296                fft3d                                 0.034558                 5130   7
  297            rpromu_acc                            0.623389                     1296   5
  298          m_sumb_d                              0.000015                          1   4
  299        fft3d_mpi                             0.006346                           22   3
  300          fftbrc_mpi                            0.005187                         22   4
  301            fftbas_plan_mpi                       0.005175                       22   5
  302              map_forward                           0.002089                     20   6
  303                map_gather                            0.000392                   10   7
  304                m_alltoallv_z                         0.000147                   10   7
  305                map_scatter                           0.001295                   10   7
  306              map_backward                          0.002436                     24   6
  307                map_gather                            0.000513                   12   7
  308                m_alltoallv_z                         0.000157                   12   7
  309                map_scatter                           0.001399                   12   7
  310        m_sumb_d                              0.000047                            5   3
  311        forhar                                0.007420                            2   3
  312          m_sumb_d                              0.000036                          2   4
  313        strehar                               0.005455                            1   3
  314          m_sumb_d                              0.000010                          1   4
  315        chggra                                0.001331                            1   3
  316          fft3d_mpi                             0.000880                          3   4
  317            fftbrc_mpi                            0.000710                        3   5
  318              fftbas_plan_mpi                       0.000706                      3   6
  319                map_forward                           0.000429                    4   7
  320                  map_gather                            0.000076                  2   8
  321                  m_alltoallv_z                         0.000029                  2   8
  322                  map_scatter                           0.000273                  2   8
  323                map_backward                          0.000189                    2   7
  324                  map_gather                            0.000042                  1   8
  325                  m_alltoallv_z                         0.000012                  1   8
  326                  map_scatter                           0.000101                  1   8
  327          m_sumb_d                              0.000010                          2   4
  328          pothar                                0.000101                          1   4
  329            m_sumb_d                              0.000005                        1   5
  330        brmix                                 0.033841                            1   3
  331          m_sumb_d                              0.000028                          6   4
  332          brpre                                 0.000102                          2   4
  333          setg0                                 0.004141                          1   4
  334          broyd                                 0.024468                          1   4
  335            m_sumb_d                              0.000247                       51   5
  336            brget                                 0.005157                      229   5
  337            brsav                                 0.001185                       49   5
  338        m_bcast_d                             0.000134                            2   3
  339      potlok                                0.133038                              2   2
  340        fft3d_mpi                             0.084993                           36   3
  341          fftbrc_mpi                            0.072207                         36   4
  342            fftbas_plan_mpi                       0.072186                       36   5
  343              map_forward                           0.018776                     40   6
  344                map_gather                            0.004848                   24   7
  345                m_alltoallv_z                         0.007889                   24   7
  346                map_scatter                           0.005717                   24   7
  347              map_backward                          0.017143                     32   6
  348                map_gather                            0.003805                   16   7
  349                m_alltoallv_z                         0.007840                   16   7
  350                map_scatter                           0.005115                   16   7
  351              dfftw_execute                         0.034362                     30   6
  352        m_sumb_d                              0.000031                            5   3
  353        pothar                                0.005965                            2   3
  354          m_sumb_d                              0.000243                          2   4
  355        m_bcast_d                             0.009674                            4   3
  356      potlok_metagga                        0.000000                              1   2
  357      set_dd_magatom                        0.000004                              1   2
  358      set_dd_paw                            5.998800                              1   2
  359        m_sumb_d                              0.928665                            7   3
  360      augmentation_charge                   0.584149                              1   2
  361        fft3d_mpi                             0.273311                            2   3
  362          fftbrc_mpi                            0.239637                          2   4
  363            fftbas_plan_mpi                       0.239634                        2   5
  364              dfftw_execute                         0.160982                      6   6
  365              map_backward                          0.078352                      4   6
  366                map_gather                            0.029122                    2   7
  367                m_alltoallv_z                         0.015825                    2   7
  368                map_scatter                           0.033392                    2   7
  369      fftwav_mpi                            6.554458                           1710   2
  370        fftwav                                6.552043                         1710   3
  371          fft3d                                 6.056252                       1710   4
  372      densta                                0.005997                              1   2
  373        m_sumb_d                              0.002468                           42   3
 
 Flat profile
 ============
 
             routine name                   CPU           calls
 ---------------------------------------------------------------
 set_dd_paw                            542.787416         107
 m_sumb_d                              132.093520      339746
 eddav                                  68.599088         109
 raccmu_                                65.963465      108293
 lapack                                 47.498614      108293
 dfftw_execute                          40.789071        3012
 setdij_                                38.280737         133
 total_time                             37.927649           1
 augmentation_charge                    33.208664         107
 redis_pw                               27.295884      579585
 fft3d                                  12.200122      634414
 init_acc                               12.077642           1
 m_alltoall_d                           11.335914     1559235
 phaser                                  9.207765         693
 eccp                                    8.540088       62130
 fft3d_mpi                               8.445749      217250
 map_scatter                             7.787323        4231
 map_gather                              6.787191        4231
 orth1                                   5.714096      324951
 m_alltoallv_z                           5.528439        4231
 hamiltmu                                5.449242      108293
 set_charge                              5.236344         106
 fftwav                                  4.939199      420949
 redis_proj                              4.867639      730926
 racc0mu_acc                             3.151611      108293
 w1_copy                                 3.151129      640395
 rpromu_acc                              3.057757       78773
 overl                                   3.024057      364806
 m_bcast_z                               2.868536      110573
 soft_charge                             2.571052         106
 acc_init_cublas                         2.414107           1
 pw_charge                               2.404773       47029
 setup_precond                           2.271639       62130
 ggemm                                   2.244663      139685
 m_bcast_d                               1.834183      216805
 overl_mu                                1.708021      108293
 broyd                                   1.336701         105
 potlok                                  1.330600         107
 depsum                                  1.003076         106
 vhamil                                  0.987990      213465
 kinhamil                                0.968013      213465
 newband                                 0.950846      108947
 fftext_mpi                              0.913099      213465
 rspher_all                              0.843196          14
 apply_precond                           0.831115      151335
 acc_init_cusolver                       0.820184           1
 brmix                                   0.619859         105
 fftwav_mpi                              0.556226      420949
 rpro_isp                                0.445286          39
 brget                                   0.443319       19893
 setg0                                   0.439442         107
 elmin                                   0.336478           1
 fftbas_plan_mpi                         0.223355        3785
 sphpro_fast                             0.219763           2
 acc_cufft_makeplan                      0.144220          19
 brsav                                   0.119944        5459
 proall                                  0.100283           1
 stufak                                  0.080408           1
 w1_projall                              0.072964       76901
 lincom                                  0.046333         660
 densta                                  0.046272         110
 map_backward                            0.042893        3986
 orthch                                  0.040972           1
 force_and_stress                        0.039640           1
 fft_gq                                  0.037495         106
 map_forward                             0.035227        3584
 truncate_high_frequency_w1              0.021948      275595
 pothar                                  0.017917         108
 brpre                                   0.011376         210
 choleski                                0.009724           6
 forhar                                  0.007384           2
 inisym                                  0.006685           1
 strelo                                  0.006392           1
 strehar                                 0.005445           1
 forloc                                  0.003773           1
 strnlr                                  0.003197           1
 rsp                                     0.002838           1
 fftbrc_mpi                              0.002753        3785
 strkin                                  0.002719           1
 fornlr                                  0.001099           1
 brgrid                                  0.000674           1
 posmap                                  0.000590           2
 set_dd_magatom                          0.000495         107
 vectorpot                               0.000444         106
 fewald                                  0.000376           1
 chggra                                  0.000340           1
 fordep                                  0.000279           1
 rcp                                     0.000088           1
 crpa_reader                             0.000026           1
 potlok_metagga                          0.000010         106
 acc_cufft_makeplans                     0.000010           3
 rotate_active_occupied_orbital          0.000001           1
 redis_pw_over_bands                     0.000000           1
 ---------------------------------------------------------------
  summed up times     1187.444171190262     
 
 Accumulative profile
 ====================
 
             routine name                   CPU           calls
 ---------------------------------------------------------------
 total_time                           1187.444171           1
 elmin                                1090.072641           1
 set_dd_paw                            643.945659         107
 eddav                                 316.531151         109
 m_sumb_d                              132.093520      339746
 hamiltmu                               80.712912      108293
 set_charge                             79.352156         106
 setdij_                                75.618099         133
 fft3d_mpi                              71.150534      217250
 raccmu_                                70.823097      108293
 augmentation_charge                    62.588766         107
 fftbrc_mpi                             61.196253        3785
 fftbas_plan_mpi                        61.193499        3785
 lapack                                 47.498614      108293
 dfftw_execute                          40.789071        3012
 redis_pw                               33.150386      579585
 force_and_stress                       24.291028           1
 newband                                16.779046      108947
 fftwav_mpi                             16.187014      420949
 fftwav                                 15.630789      420949
 fft3d                                  12.200122      634414
 init_acc                               12.077642           1
 m_alltoall_d                           11.335914     1559235
 map_backward                           10.472920        3986
 redis_proj                             10.349052      730926
 soft_charge                            10.266421         106
 map_forward                             9.708153        3584
 phaser                                  9.207765         693
 eccp                                    8.540088       62130
 map_scatter                             7.787323        4231
 map_gather                              6.787191        4231
 orth1                                   5.714096      324951
 m_alltoallv_z                           5.528439        4231
 kinhamil                                3.452583      213465
 fordep                                  3.398270           1
 racc0mu_acc                             3.151611      108293
 w1_copy                                 3.151129      640395
 rpromu_acc                              3.057757       78773
 overl                                   3.024057      364806
 brmix                                   3.001488         105
 m_bcast_z                               2.868536      110573
 fftext_mpi                              2.484570      213465
 acc_init_cublas                         2.414107           1
 potlok                                  2.407115         107
 pw_charge                               2.404773       47029
 w1_projall                              2.286936       76901
 setup_precond                           2.271639       62130
 ggemm                                   2.244663      139685
 strnlr                                  2.058021           1
 broyd                                   1.920490         105
 m_bcast_d                               1.834183      216805
 overl_mu                                1.708021      108293
 rpro_isp                                1.549875          39
 depsum                                  1.081331         106
 vhamil                                  0.987990      213465
 fft_gq                                  0.918700         106
 rspher_all                              0.843196          14
 apply_precond                           0.831115      151335
 acc_init_cusolver                       0.820184           1
 fornlr                                  0.686515           1
 brget                                   0.443319       19893
 setg0                                   0.439442         107
 orthch                                  0.295768           1
 sphpro_fast                             0.228204           2
 proall                                  0.203891           1
 acc_cufft_makeplans                     0.144230           3
 acc_cufft_makeplan                      0.144220          19
 brsav                                   0.119944        5459
 stufak                                  0.080408           1
 densta                                  0.071097         110
 lincom                                  0.046333         660
 truncate_high_frequency_w1              0.021948      275595
 pothar                                  0.019547         108
 brpre                                   0.011376         210
 choleski                                0.009724           6
 forhar                                  0.007420           2
 inisym                                  0.007275           1
 strelo                                  0.006471           1
 forloc                                  0.005800           1
 strehar                                 0.005455           1
 fewald                                  0.004584           1
 rsp                                     0.002838           1
 strkin                                  0.002727           1
 chggra                                  0.001331           1
 brgrid                                  0.000674           1
 posmap                                  0.000590           2
 set_dd_magatom                          0.000495         107
 vectorpot                               0.000444         106
 rcp                                     0.000088           1
 crpa_reader                             0.000026           1
 potlok_metagga                          0.000010         106
 rotate_active_occupied_orbital          0.000001           1
 redis_pw_over_bands                     0.000000           1
 ---------------------------------------------------------------
 
Profiling took   1.331683  0.650366  0.003449  0.003336 seconds
Profiling took   0.833974 seconds
