 vasp.6.3.2 27Jun22 (build Jul  3 2023 11:46:21) complex                         
 executed on    LinuxNV_CrayMPICH date 2024.04.22  03:28:49
 running on    4 total cores
 distrk:  each k-point on    4 cores,    1 groups
 distr:  one band on NCORE=   1 cores,    4 groups


--------------------------------------------------------------------------------------------------------


 INCAR:
   ALGO = Fast
   EDIFF = 0.0007
   EFIELD_PEAD = 0.0 0.0 0.0
   ENCUT = 520.0
   IBRION = 2
   ICHARG = 1
   ISIF = 3
   ISMEAR = 0
   ISPIN = 2
   ISTART = 1
   LCALCEPS = False
   LCALCPOL = False
   LEFG = False
   LORBIT = 11
   LPEAD = False
   LREAL = Auto
   LWAVE = False
   MAGMOM = 2*7.0 12*0.6
   NELM = 1000
   NSW = 99
   PREC = accurate
   SIGMA = 0.2

 POTCAR:    PAW_PBE Eu 23Dec2003                  
 POTCAR:    PAW_PBE Yb_2 06Sep2000                
 POTCAR:    PAW_PBE S 06Sep2000                   
 POTCAR:    PAW_PBE Eu 23Dec2003                  
   SHA256 =  ed303d27e7c5191953f9b15539336e6f36d9037c1d2e92e80c13d733697cb93d Eu/POTCAR             
   COPYR  = (c) Copyright 23Dec2003 Georg Kresse                                                    
   COPYR  = This file is part of the software VASP. Any use, copying, and all other rights are regul
   COPYR  = If you do not have a valid VASP license, you may not use, copy or distribute this file. 
   VRHFIN =Eu : [core=Kr4d]                                                                         
   LEXCH  = PE                                                                                      
   EATOM  =  2619.8085 eV,  192.5505 Ry                                                             
                                                                                                    
   TITEL  = PAW_PBE Eu 23Dec2003                                                                    
   LULTRA =        F    use ultrasoft PP ?                                                          
   IUNSCR =        1    unscreen: 0-lin 1-nonlin 2-no                                               
   RPACOR =    2.300    partial core radius                                                         
   POMASS =  151.965; ZVAL   =   17.000    mass and valenz                                          
   RCORE  =    2.800    outmost cutoff radius                                                       
   RWIGS  =    2.800; RWIGS  =    1.482    wigner-seitz radius (au A)                               
   ENMAX  =  249.668; ENMIN  =  187.251 eV                                                          
   RCLOC  =    2.308    cutoff for local pot                                                        
   LCOR   =        T    correct aug charges                                                         
   LPAW   =        T    paw PP                                                                      
   EAUG   =  549.628                                                                                
   DEXC   =    0.000                                                                                
   RMAX   =    2.870    core radius for proj-oper                                                   
   RAUG   =    1.300    factor for augmentation sphere                                              
   RDEP   =    2.887    radius for radial grids                                                     
   RDEPT  =    2.221    core radius for aug-charge                                                  
                                                                                                    
   Atomic configuration                                                                             
   14 entries                                                                                       
     n  l   j            E        occ.                                                              
     1  0  0.50    -48354.7667   2.0000                                                             
     2  0  0.50     -7939.6472   2.0000                                                             
     2  1  1.50     -7072.6637   6.0000                                                             
     3  0  0.50     -1747.1875   2.0000                                                             
     3  1  1.50     -1477.5221   6.0000                                                             
     3  2  2.50     -1117.4686  10.0000                                                             
     4  0  0.50      -346.8682   2.0000                                                             
     4  1  1.50      -258.1962   6.0000                                                             
     4  2  2.50      -134.7724  10.0000                                                             
     5  0  0.50       -44.6510   2.0000                                                             
     6  0  0.50        -3.6227   2.0000                                                             
     5  1  1.50       -23.7639   6.0000                                                             
     5  2  2.50        -1.3130   0.0000                                                             
     4  3  2.50        -2.7310   7.0000                                                             
   Description                                                                                      
     l       E           TYP  RCUT    TYP  RCUT                                                     
     0    -44.6510453     23  2.400                                                                 
     0     -3.6226685     23  2.400                                                                 
     1    -23.7638687     23  2.400                                                                 
     1     27.2116520     23  2.400                                                                 
     2     -1.3129622     23  2.500                                                                 
     2     13.6058260     23  2.500                                                                 
     3     -2.7309948     23  2.800                                                                 
     3     -3.4014565     23  2.800                                                                 
  local pseudopotential read in
  partial core-charges read in
  partial kinetic energy density read in
  atomic valenz-charges read in
  non local Contribution for L=            0  read in
    real space projection operators read in
  non local Contribution for L=            0  read in
    real space projection operators read in
  non local Contribution for L=            1  read in
    real space projection operators read in
  non local Contribution for L=            1  read in
    real space projection operators read in
  non local Contribution for L=            2  read in
    real space projection operators read in
  non local Contribution for L=            2  read in
    real space projection operators read in
  non local Contribution for L=            3  read in
    real space projection operators read in
  non local Contribution for L=            3  read in
    real space projection operators read in
    PAW grid and wavefunctions read in
 
   number of l-projection  operators is LMAX  =            8
   number of lm-projection operators is LMMAX =           32
 
 POTCAR:    PAW_PBE Yb_2 06Sep2000                
   SHA256 =  447ea688f1b29a5c5d62bbadb2b3e4a6902763696c282b59e85a911f7e119eeb Yb_2/POTCAR           
   COPYR  = (c) Copyright 06Sep2000 Georg Kresse                                                    
   COPYR  = This file is part of the software VASP. Any use, copying, and all other rights are regul
   COPYR  = If you do not have a valid VASP license, you may not use, copy or distribute this file. 
   VRHFIN =Yb : [core=Xe4]                                                                          
   LEXCH  = PE                                                                                      
   EATOM  =   572.3552 eV,   42.0669 Ry                                                             
                                                                                                    
   TITEL  = PAW_PBE Yb_2 06Sep2000                                                                  
   LULTRA =        F    use ultrasoft PP ?                                                          
   IUNSCR =        1    unscreen: 0-lin 1-nonlin 2-no                                               
   RPACOR =    2.400    partial core radius                                                         
   POMASS =  173.040; ZVAL   =    8.000    mass and valenz                                          
   RCORE  =    3.100    outmost cutoff radius                                                       
   RWIGS  =    3.300; RWIGS  =    1.746    wigner-seitz radius (au A)                               
   ENMAX  =  112.578; ENMIN  =   84.433 eV                                                          
   RCLOC  =    2.410    cutoff for local pot                                                        
   LCOR   =        T    correct aug charges                                                         
   LPAW   =        T    paw PP                                                                      
   EAUG   =  301.012                                                                                
   DEXC   =    0.000                                                                                
   RMAX   =    3.170    core radius for proj-oper                                                   
   RAUG   =    1.300    factor for augmentation sphere                                              
   RDEP   =    3.215    radius for radial grids                                                     
   RDEPT  =    2.473    core radius for aug-charge                                                  
                                                                                                    
   Atomic configuration                                                                             
   14 entries                                                                                       
     n  l   j            E        occ.                                                              
     1  0  0.50    -61220.9726   2.0000                                                             
     2  0  0.50    -10371.0425   2.0000                                                             
     2  1  1.50     -9138.3712   6.0000                                                             
     3  0  0.50     -2337.6588   2.0000                                                             
     3  1  1.50     -1966.2680   6.0000                                                             
     3  2  2.50     -1514.8100  10.0000                                                             
     4  0  0.50      -459.9070   2.0000                                                             
     4  1  1.50      -338.0537   6.0000                                                             
     4  2  2.50      -177.8445  10.0000                                                             
     4  3  2.50        -3.0334  14.0000                                                             
     5  0  0.50       -54.9037   2.0000                                                             
     6  0  0.50        -3.9192   2.0000                                                             
     5  1  1.50       -27.4093   6.0000                                                             
     5  2  2.50        -2.0436   0.0000                                                             
   Description                                                                                      
     l       E           TYP  RCUT    TYP  RCUT                                                     
     0     -3.9192173     23  3.100                                                                 
     0     13.6058260     23  3.100                                                                 
     1    -27.4092538     23  3.100                                                                 
     1    -28.7698364     23  3.100                                                                 
     2     -2.0435951     23  3.100                                                                 
     2      2.2720029     23  3.100                                                                 
  local pseudopotential read in
  partial core-charges read in
  partial kinetic energy density read in
  atomic valenz-charges read in
  non local Contribution for L=            0  read in
    real space projection operators read in
  non local Contribution for L=            0  read in
    real space projection operators read in
  non local Contribution for L=            1  read in
    real space projection operators read in
  non local Contribution for L=            1  read in
    real space projection operators read in
  non local Contribution for L=            2  read in
    real space projection operators read in
  non local Contribution for L=            2  read in
    real space projection operators read in
    PAW grid and wavefunctions read in
 
   number of l-projection  operators is LMAX  =            6
   number of lm-projection operators is LMMAX =           18
 
 POTCAR:    PAW_PBE S 06Sep2000                   
   SHA256 =  0fc7481fb0695f01bdc6462160264c5c84044ae9ec85a907d398b887a2bc3132 S/POTCAR              
   COPYR  = (c) Copyright 06Sep2000 Georg Kresse                                                    
   COPYR  = This file is part of the software VASP. Any use, copying, and all other rights are regul
   COPYR  = If you do not have a valid VASP license, you may not use, copy or distribute this file. 
   VRHFIN =S : s2p4                                                                                 
   LEXCH  = PE                                                                                      
   EATOM  =   276.8230 eV,   20.3459 Ry                                                             
                                                                                                    
   TITEL  = PAW_PBE S 06Sep2000                                                                     
   LULTRA =        F    use ultrasoft PP ?                                                          
   IUNSCR =        1    unscreen: 0-lin 1-nonlin 2-no                                               
   RPACOR =    1.500    partial core radius                                                         
   POMASS =   32.066; ZVAL   =    6.000    mass and valenz                                          
   RCORE  =    1.900    outmost cutoff radius                                                       
   RWIGS  =    2.200; RWIGS  =    1.164    wigner-seitz radius (au A)                               
   ENMAX  =  258.689; ENMIN  =  194.016 eV                                                          
   ICORE  =        2    local potential                                                             
   LCOR   =        T    correct aug charges                                                         
   LPAW   =        T    paw PP                                                                      
   EAUG   =  335.092                                                                                
   DEXC   =    0.000                                                                                
   RMAX   =    1.942    core radius for proj-oper                                                   
   RAUG   =    1.300    factor for augmentation sphere                                              
   RDEP   =    1.954    radius for radial grids                                                     
   RDEPT  =    1.744    core radius for aug-charge                                                  
                                                                                                    
   Atomic configuration                                                                             
    6 entries                                                                                       
     n  l   j            E        occ.                                                              
     1  0  0.50     -2405.8406   2.0000                                                             
     2  0  0.50      -211.7007   2.0000                                                             
     2  1  1.50      -156.4958   6.0000                                                             
     3  0  0.50       -17.2562   2.0000                                                             
     3  1  0.50        -7.0085   4.0000                                                             
     3  2  1.50        -6.8029   0.0000                                                             
   Description                                                                                      
     l       E           TYP  RCUT    TYP  RCUT                                                     
     0    -17.2561641     23  1.900                                                                 
     0    -15.8743224     23  1.900                                                                 
     1     -7.0085400     23  1.900                                                                 
     1     -2.7779785     23  1.900                                                                 
     2     -6.8029130     23  1.900                                                                 
  local pseudopotential read in
  partial core-charges read in
  partial kinetic energy density read in
  atomic valenz-charges read in
  non local Contribution for L=            0  read in
    real space projection operators read in
  non local Contribution for L=            0  read in
    real space projection operators read in
  non local Contribution for L=            1  read in
    real space projection operators read in
  non local Contribution for L=            1  read in
    real space projection operators read in
    PAW grid and wavefunctions read in
 
   number of l-projection  operators is LMAX  =            4
   number of lm-projection operators is LMMAX =            8
 
 Optimization of the real space projectors (new method)

 maximal supplied QI-value         = 13.42
 optimisation between [QCUT,QGAM] = [ 11.67, 23.35] = [ 38.16,152.62] Ry 
 Optimized for a Real-space Cutoff    1.63 Angstroem

   l    n(q)    QCUT    max X(q) W(low)/X(q) W(high)/X(q)  e(spline) 
   0     11    11.673    10.400    0.14E-04    0.18E-05    0.24E-07
   0     11    11.673    10.768    0.21E-04    0.32E-05    0.49E-07
   1     11    11.673     4.094    0.40E-05    0.13E-04    0.93E-07
   1     11    11.673     4.009    0.11E-04    0.46E-04    0.33E-06
   2     10    11.673    29.030    0.79E-04    0.60E-04    0.70E-06
   2     10    11.673    19.941    0.80E-04    0.60E-04    0.71E-06
   3     10    11.673    88.889    0.23E-03    0.29E-03    0.30E-06
   3     10    11.673    76.102    0.23E-03    0.30E-03    0.30E-06
 Optimization of the real space projectors (new method)

 maximal supplied QI-value         = 12.09
 optimisation between [QCUT,QGAM] = [ 11.61, 23.34] = [ 37.75,152.57] Ry 
 Optimized for a Real-space Cutoff    1.89 Angstroem

   l    n(q)    QCUT    max X(q) W(low)/X(q) W(high)/X(q)  e(spline) 
   0     13    11.610    37.655    0.45E-04    0.19E-04    0.34E-06
   0     13    11.610    17.791    0.29E-04    0.15E-04    0.27E-06
   1     13    11.610    36.143    0.15E-04    0.51E-06    0.99E-06
   1     13    11.610    36.445    0.16E-04    0.54E-06    0.10E-05
   2     12    11.610    14.662    0.21E-03    0.42E-03    0.57E-05
   2     12    11.610    15.811    0.17E-03    0.35E-03    0.47E-05
 Optimization of the real space projectors (new method)

 maximal supplied QI-value         = 19.84
 optimisation between [QCUT,QGAM] = [ 11.51, 23.22] = [ 37.09,150.92] Ry 
 Optimized for a Real-space Cutoff    1.21 Angstroem

   l    n(q)    QCUT    max X(q) W(low)/X(q) W(high)/X(q)  e(spline) 
   0      8    11.508   187.594    0.96E-04    0.18E-03    0.54E-07
   0      8    11.508   164.243    0.96E-04    0.18E-03    0.54E-07
   1      8    11.508    67.533    0.18E-03    0.65E-04    0.94E-07
   1      8    11.508    50.729    0.18E-03    0.63E-04    0.92E-07
  PAW_PBE Eu 23Dec2003                  :
 energy of atom  1       EATOM=-2619.8085
 kinetic energy error for atom=    0.0015 (will be added to EATOM!!)
  PAW_PBE Yb_2 06Sep2000                :
 energy of atom  2       EATOM= -572.3552
 kinetic energy error for atom=    0.0001 (will be added to EATOM!!)
  PAW_PBE S 06Sep2000                   :
 energy of atom  3       EATOM= -276.8230
 kinetic energy error for atom=    0.0016 (will be added to EATOM!!)
 
 
 POSCAR: Yb4 Eu2 S8
  positions in direct lattice
  No initial velocities read in
 exchange correlation table for  LEXCH =        8
   RHO(1)=    0.500       N(1)  =     2000
   RHO(2)=  100.500       N(2)  =     4000

 VTST: version 4.2, (08/11/21)

 CHAIN: initializing optimizer
 
 OPT: Using VASP Conjugate-Gradient optimizer
 CHAIN: Read ICHAIN             0
 
 POSCAR: Yb4 Eu2 S8
  positions in direct lattice
  No initial velocities read in
 


--------------------------------------------------------------------------------------------------------


 ion  position               nearest neighbor table
   1  0.625  0.375  0.250-  14 2.86   8 2.86  10 2.86   9 2.86   7 2.87  12 2.87  11 2.87  13 2.87
                             4 3.87   6 3.87   3 3.87   5 3.87   4 3.87   3 3.87   6 3.87   5 3.87
   2  0.875  0.125  0.750-  13 2.86  12 2.86  11 2.86   7 2.86   8 2.87  10 2.87   9 2.87  14 2.87
                             5 3.87   3 3.87   4 3.87   6 3.87   4 3.87   5 3.87   3 3.87   6 3.87
   3  0.125  0.750  0.875-   7 2.86  14 2.86  10 2.86  13 2.86   8 2.87  11 2.87   9 2.87  12 2.87
                             2 3.87   1 3.87   6 3.87   6 3.87   4 3.87   4 3.87   1 3.87   2 3.87
   4  0.250  0.625  0.375-   9 2.86  13 2.86  11 2.86  14 2.86  12 2.87  10 2.87   7 2.87   8 2.87
                             1 3.87   2 3.87   5 3.87   5 3.87   3 3.87   3 3.87   1 3.87   2 3.87
   5  0.375  0.250  0.625-  11 2.86   8 2.86  12 2.86   9 2.86  14 2.87   7 2.87  13 2.87  10 2.87
                             2 3.87   1 3.87   6 3.87   4 3.87   6 3.87   4 3.87   2 3.87   1 3.87
   6  0.750  0.875  0.125-  10 2.86  12 2.86   8 2.86   7 2.86  13 2.87   9 2.87  11 2.87  14 2.87
                             1 3.87   2 3.87   3 3.87   5 3.87   3 3.87   5 3.87   1 3.87   2 3.87
   7  0.166  0.166  0.166-   2 2.86   3 2.86   6 2.86   5 2.87   4 2.87   1 2.87
   8  0.334  0.500  0.000-   1 2.86   5 2.86   6 2.86   3 2.87   4 2.87   2 2.87
   9  0.666  0.666  0.666-   1 2.86   4 2.86   5 2.86   6 2.87   3 2.87   2 2.87
  10  0.500  0.000  0.834-   1 2.86   6 2.86   3 2.86   4 2.87   5 2.87   2 2.87
  11  0.500  0.000  0.334-   2 2.86   5 2.86   4 2.86   3 2.87   6 2.87   1 2.87
  12  1.000  0.834  0.500-   2 2.86   6 2.86   5 2.86   4 2.87   3 2.87   1 2.87
  13  0.834  0.500  1.000-   2 2.86   4 2.86   3 2.86   6 2.87   5 2.87   1 2.87
  14  1.000  0.334  0.500-   1 2.86   3 2.86   4 2.86   5 2.87   6 2.87   2 2.87
 
  LATTYP: Found a body centered tetragonal cell.
 ALAT       =     8.2632596167
 C/A-ratio  =     1.0016625381
  
  Lattice vectors:
  
 A1 = (   6.7497272000,   0.0048571100,  -2.3893634900)
 A2 = (  -3.3706572200,   5.8478639500,  -2.3893634900)
 A3 = (  -0.0028042500,  -0.0048571100,   7.1601588400)


Analysis of symmetry for initial positions (statically):
=====================================================================
 Subroutine PRICEL returns:
 Original cell was already a primitive cell.
 

 Routine SETGRP: Setting up the symmetry group for a 
 body centered tetragonal supercell.


 Subroutine GETGRP returns: Found  8 space group operations
 (whereof  1 operations were pure point group operations)
 out of a pool of 16 trial point group operations.


The static configuration has the point symmetry C_1 .
 The point group associated with its full space group is D_2d.


Analysis of symmetry for dynamics (positions and initial velocities):
=====================================================================
 Subroutine PRICEL returns:
 Original cell was already a primitive cell.
 

 Routine SETGRP: Setting up the symmetry group for a 
 body centered tetragonal supercell.


 Subroutine GETGRP returns: Found  8 space group operations
 (whereof  1 operations were pure point group operations)
 out of a pool of 16 trial point group operations.


The dynamic configuration has the point symmetry C_1 .
 The point group associated with its full space group is D_2d.


Analysis of structural, dynamic, and magnetic symmetry:
=====================================================================
 Subroutine PRICEL returns:
 Original cell was already a primitive cell.
 

 Routine SETGRP: Setting up the symmetry group for a 
 body centered tetragonal supercell.


 Subroutine GETGRP returns: Found  8 space group operations
 (whereof  1 operations were pure point group operations)
 out of a pool of 16 trial point group operations.


The overall configuration has the point symmetry C_1 .
 The point group associated with its full space group is D_2d.


 Subroutine INISYM returns: Found  8 space group operations
 (whereof  1 operations are pure point group operations),
 and found     1 'primitive' translations


----------------------------------------------------------------------------------------

                                     Primitive cell                                     

  volume of cell :     282.5827

  direct lattice vectors                    reciprocal lattice vectors
     6.749727200  0.004857110 -2.389363490     0.148133712  0.085430348  0.000115968
    -3.370657220  5.847863950 -2.389363490    -0.000082002  0.171002728  0.000115968
    -0.002804250 -0.004857110  7.160158840     0.049405238  0.085572380  0.139739104

  length of vectors
     7.160160526  7.160160666  7.160161037     0.171002791  0.171002787  0.171144754

  position of ions in fractional coordinates (direct lattice)
     0.625000000  0.375000000  0.250000000
     0.875000000  0.125000000  0.750000000
     0.125022750  0.750000000  0.875022750
     0.250000000  0.625022750  0.375022750
     0.374977250  0.250000000  0.624977250
     0.750000000  0.874977250  0.124977250
     0.165702830  0.165724390  0.165590970
     0.334297170  0.499888140  0.000021560
     0.665724390  0.665702830  0.665590970
     0.500111860  0.000133420  0.834409030
     0.500133420  0.000111860  0.334409030
     0.999888140  0.834297170  0.500021560
     0.834275610  0.499866580  0.999978440
     0.999866580  0.334275610  0.499978440

  ion indices of the primitive-cell ions
   primitive index   ion index
                 1           1
                 2           2
                 3           3
                 4           4
                 5           5
                 6           6
                 7           7
                 8           8
                 9           9
                10          10
                11          11
                12          12
                13          13
                14          14

----------------------------------------------------------------------------------------

 
 
 KPOINTS: Kpoints from vasprun.xml                

Automatic generation of k-mesh.
 Grid dimensions read from file:
 generate k-points for:    4    4    4

 Generating k-lattice:

  Cartesian coordinates                     Fractional coordinates (reciprocal lattice)
     0.037033428  0.021357587  0.000028992     0.250000000 -0.000000000 -0.000000000
    -0.000020500  0.042750682  0.000028992     0.000000000  0.250000000  0.000000000
     0.012351309  0.021393095  0.034934776     0.000000000  0.000000000  0.250000000

  Length of vectors
     0.042750698  0.042750697  0.042786189

  Shift w.r.t. Gamma in fractional coordinates (k-lattice)
     0.500000000  0.500000000  0.500000000

 
 Subroutine IBZKPT returns following result:
 ===========================================
 
 Found     11 irreducible k-points:
 
 Following reciprocal coordinates:
            Coordinates               Weight
  0.125000  0.125000  0.125000      8.000000
  0.375000  0.125000  0.125000      8.000000
 -0.125000  0.125000  0.125000      4.000000
  0.375000  0.375000  0.125000      4.000000
 -0.375000  0.375000  0.125000      8.000000
 -0.125000  0.375000  0.125000      8.000000
 -0.375000 -0.375000  0.125000      8.000000
 -0.125000 -0.375000  0.125000      8.000000
 -0.125000 -0.125000  0.125000      2.000000
 -0.375000  0.375000  0.375000      4.000000
 -0.375000 -0.375000  0.375000      2.000000
 
 Following cartesian coordinates:
            Coordinates               Weight
  0.024682  0.042751  0.017496      8.000000
  0.061716  0.064108  0.017525      8.000000
 -0.012351  0.021393  0.017467      4.000000
  0.061695  0.106859  0.017554      4.000000
 -0.049405  0.042786  0.017467      8.000000
 -0.012372  0.064144  0.017496      8.000000
 -0.049344 -0.085466  0.017380      8.000000
 -0.012310 -0.064108  0.017409      8.000000
 -0.012331 -0.021358  0.017438      2.000000
 -0.037054  0.064179  0.052402      4.000000
 -0.036992 -0.064073  0.052315      2.000000
 


--------------------------------------------------------------------------------------------------------




 Dimension of arrays:
   k-points           NKPTS =     11   k-points in BZ     NKDIM =     11   number of bands    NBANDS=     80
   number of dos      NEDOS =    301   number of ions     NIONS =     14
   non local maximal  LDIM  =      8   non local SUM 2l+1 LMDIM =     32
   total plane-waves  NPLWV = 157464
   max r-space proj   IRMAX =  15718   max aug-charges    IRDMAX=  44146
   dimension x,y,z NGX =    54 NGY =   54 NGZ =   54
   dimension x,y,z NGXF=   108 NGYF=  108 NGZF=  108
   support grid    NGXF=   108 NGYF=  108 NGZF=  108
   ions per type =               2   4   8
   NGX,Y,Z   is equivalent  to a cutoff of  12.54, 12.54, 12.54 a.u.
   NGXF,Y,Z  is equivalent  to a cutoff of  25.08, 25.08, 25.08 a.u.

 SYSTEM =  unknown system                          
 POSCAR =  Yb4 Eu2 S8                              

 Startparameter for this run:
   NWRITE =      2    write-flag & timer
   PREC   = accura    normal or accurate (medium, high low for compatibility)
   ISTART =      0    job   : 0-new  1-cont  2-samecut
   ICHARG =      1    charge: 1-file 2-atom 10-const
   ISPIN  =      2    spin polarized calculation?
   LNONCOLLINEAR =      F non collinear calculations
   LSORBIT =      F    spin-orbit coupling
   INIWAV =      1    electr: 0-lowe 1-rand  2-diag
   LASPH  =      F    aspherical Exc in radial PAW
 Electronic Relaxation 1
   ENCUT  =  520.0 eV  38.22 Ry    6.18 a.u.  13.31 13.31 13.31*2*pi/ulx,y,z
   ENINI  =  520.0     initial cutoff
   ENAUG  =  549.6 eV  augmentation charge cutoff
   NELM   =   1000;   NELMIN=  2; NELMDL=  0     # of ELM steps 
   EDIFF  = 0.7E-03   stopping-criterion for ELM
   LREAL  =      T    real-space projection
   NLSPLINE    = F    spline interpolate recip. space projectors
   LCOMPAT=      F    compatible to vasp.4.4
   GGA_COMPAT  = T    GGA compatible to vasp.4.4-vasp.4.6
   LMAXPAW     = -100 max onsite density
   LMAXMIX     =    2 max onsite mixed and CHGCAR
   VOSKOWN=      0    Vosko Wilk Nusair interpolation
   ROPT   =   -0.00025  -0.00025  -0.00025
 Ionic relaxation
   EDIFFG = 0.7E-02   stopping-criterion for IOM
   NSW    =     99    number of steps for IOM
   NBLOCK =      1;   KBLOCK =     99    inner block; outer block 
   IBRION =      2    ionic relax: 0-MD 1-quasi-New 2-CG
   NFREE  =      1    steps in history (QN), initial steepest desc. (CG)
   ISIF   =      3    stress and relaxation
   IWAVPR =     11    prediction:  0-non 1-charg 2-wave 3-comb
   ISYM   =      2    0-nonsym 1-usesym 2-fastsym
   LCORR  =      T    Harris-Foulkes like correction to forces

   POTIM  = 0.5000    time-step for ionic-motion
   TEIN   =    0.0    initial temperature
   TEBEG  =    0.0;   TEEND  =   0.0 temperature during run
   SMASS  =  -3.00    Nose mass-parameter (am)
   estimated Nose-frequenzy (Omega)   =  0.10E-29 period in steps = 0.13E+47 mass=  -0.117E-26a.u.
   SCALEE = 1.0000    scale energy and forces
   NPACO  =    256;   APACO  = 10.0  distance and # of slots for P.C.
   PSTRESS=    0.0 pullay stress

  Mass of Ions in am
   POMASS = 151.97173.04 32.07
  Ionic Valenz
   ZVAL   =  17.00  8.00  6.00
  Atomic Wigner-Seitz radii
   RWIGS  =  -1.00 -1.00 -1.00
  virtual crystal weights 
   VCA    =   1.00  1.00  1.00
   NELECT =     114.0000    total number of electrons
   NUPDOWN=      -1.0000    fix difference up-down

 DOS related values:
   EMIN   =  10.00;   EMAX   =-10.00  energy-range for DOS
   EFERMI =   0.00
   ISMEAR =     0;   SIGMA  =   0.20  broadening in eV -4-tet -1-fermi 0-gaus

 Electronic relaxation 2 (details)
   IALGO  =     68    algorithm
   LDIAG  =      T    sub-space diagonalisation (order eigenvalues)
   LSUBROT=      F    optimize rotation matrix (better conditioning)
   TURBO    =      0    0=normal 1=particle mesh
   IRESTART =      0    0=no restart 2=restart with 2 vectors
   NREBOOT  =      0    no. of reboots
   NMIN     =      0    reboot dimension
   EREF     =   0.00    reference energy to select bands
   IMIX   =      4    mixing-type and parameters
     AMIX     =   0.40;   BMIX     =  1.00
     AMIX_MAG =   1.60;   BMIX_MAG =  1.00
     AMIN     =   0.10
     WC   =   100.;   INIMIX=   1;  MIXPRE=   1;  MAXMIX= -45

 Intra band minimization:
   WEIMIN = 0.0010     energy-eigenvalue tresh-hold
   EBREAK =  0.22E-05  absolut break condition
   DEPER  =   0.30     relativ break condition  

   TIME   =   0.40     timestep for ELM

  volume/ion in A,a.u.               =      20.18       136.21
  Fermi-wavevector in a.u.,A,eV,Ry     =   1.209654  2.285915 19.908906  1.463263
  Thomas-Fermi vector in A             =   2.345225
 
 Write flags
   LWAVE        =      F    write WAVECAR
   LDOWNSAMPLE  =      F    k-point downsampling of WAVECAR
   LCHARG       =      T    write CHGCAR
   LVTOT        =      F    write LOCPOT, total local potential
   LVHAR        =      F    write LOCPOT, Hartree potential only
   LELF         =      F    write electronic localiz. function (ELF)
   LORBIT       =     11    0 simple, 1 ext, 2 COOP (PROOUT), +10 PAW based schemes


 Dipole corrections
   LMONO  =      F    monopole corrections only (constant potential shift)
   LDIPOL =      F    correct potential (dipole corrections)
   IDIPOL =      0    1-x, 2-y, 3-z, 4-all directions 
   EPSILON=  1.0000000 bulk dielectric constant

 Exchange correlation treatment:
   GGA     =    --    GGA type
   LEXCH   =     8    internal setting for exchange type
   LIBXC   =     F    Libxc                    
   VOSKOWN =     0    Vosko Wilk Nusair interpolation
   LHFCALC =     F    Hartree Fock is set to
   LHFONE  =     F    Hartree Fock one center treatment
   AEXX    =    0.0000 exact exchange contribution

 Linear response parameters
   LEPSILON=     F    determine dielectric tensor
   LRPA    =     F    only Hartree local field effects (RPA)
   LNABLA  =     F    use nabla operator in PAW spheres
   LVEL    =     F    velocity operator in full k-point grid
   CSHIFT  =0.1000    complex shift for real part using Kramers Kronig
   OMEGAMAX=  -1.0    maximum frequency
   DEG_THRESHOLD= 0.2000000E-02 threshold for treating states as degnerate
   RTIME   =   -0.100 relaxation time in fs
  (WPLASMAI=    0.000 imaginary part of plasma frequency in eV, 0.658/RTIME)
   DFIELD  = 0.0000000 0.0000000 0.0000000 field for delta impulse in time
 
  Optional k-point grid parameters
   LKPOINTS_OPT  =     F    use optional k-point grid
   KPOINTS_OPT_MODE=     1    mode for optional k-point grid
 
 Orbital magnetization related:
   ORBITALMAG=     F  switch on orbital magnetization
   LCHIMAG   =     F  perturbation theory with respect to B field
   DQ        =  0.001000  dq finite difference perturbation B field
   LLRAUG    =     F  two centre corrections for induced B field



--------------------------------------------------------------------------------------------------------


 conjugate gradient relaxation of ions
 charge density and potential will be updated during run
 spin polarized calculation
 RMM-DIIS sequential band-by-band and
  variant of blocked Davidson during initial phase
 perform sub-space diagonalisation
    before iterative eigenvector-optimisation
 modified Broyden-mixing scheme, WC =      100.0
 initial mixing is a Kerker type mixing with AMIX =  0.4000 and BMIX =      1.0000
 Hartree-type preconditioning will be used
 using additional bands            23
 real space projection scheme for non local part
 use partial core corrections
 calculate Harris-corrections to forces 
   (improved forces if not selfconsistent)
 use gradient corrections 
 use of overlap-Matrix (Vanderbilt PP)
 Gauss-broadening in eV      SIGMA  =   0.20


--------------------------------------------------------------------------------------------------------


  energy-cutoff  :      520.00
  volume of cell :      282.58
      direct lattice vectors                 reciprocal lattice vectors
     6.749727200  0.004857110 -2.389363490     0.148133712  0.085430348  0.000115968
    -3.370657220  5.847863950 -2.389363490    -0.000082002  0.171002728  0.000115968
    -0.002804250 -0.004857110  7.160158840     0.049405238  0.085572380  0.139739104

  length of vectors
     7.160160526  7.160160666  7.160161037     0.171002791  0.171002787  0.171144754


 
 k-points in units of 2pi/SCALE and weight: Kpoints from vasprun.xml                
   0.02468212  0.04275068  0.01749638       0.125
   0.06171555  0.06410827  0.01752537       0.125
  -0.01235131  0.02139309  0.01746739       0.063
   0.06169505  0.10685895  0.01755436       0.063
  -0.04940524  0.04278619  0.01746739       0.125
  -0.01237181  0.06414378  0.01749638       0.125
  -0.04934374 -0.08546586  0.01738041       0.125
  -0.01231031 -0.06410827  0.01740940       0.125
  -0.01233081 -0.02135759  0.01743840       0.031
  -0.03705393  0.06417928  0.05240216       0.063
  -0.03699243 -0.06407276  0.05231519       0.031
 
 k-points in reciprocal lattice and weights: Kpoints from vasprun.xml                
   0.12500000  0.12500000  0.12500000       0.125
   0.37500000  0.12500000  0.12500000       0.125
  -0.12500000  0.12500000  0.12500000       0.063
   0.37500000  0.37500000  0.12500000       0.063
  -0.37500000  0.37500000  0.12500000       0.125
  -0.12500000  0.37500000  0.12500000       0.125
  -0.37500000 -0.37500000  0.12500000       0.125
  -0.12500000 -0.37500000  0.12500000       0.125
  -0.12500000 -0.12500000  0.12500000       0.031
  -0.37500000  0.37500000  0.37500000       0.063
  -0.37500000 -0.37500000  0.37500000       0.031
 
 position of ions in fractional coordinates (direct lattice) 
   0.62500000  0.37500000  0.25000000
   0.87500000  0.12500000  0.75000000
   0.12502275  0.75000000  0.87502275
   0.25000000  0.62502275  0.37502275
   0.37497725  0.25000000  0.62497725
   0.75000000  0.87497725  0.12497725
   0.16570283  0.16572439  0.16559097
   0.33429717  0.49988814  0.00002156
   0.66572439  0.66570283  0.66559097
   0.50011186  0.00013342  0.83440903
   0.50013342  0.00011186  0.33440903
   0.99988814  0.83429717  0.50002156
   0.83427561  0.49986658  0.99997844
   0.99986658  0.33427561  0.49997844
 
 position of ions in cartesian coordinates  (Angst):
   2.95388198  2.19477040 -0.59932378
   5.48257596  0.73159013  2.98075564
  -1.68657724  4.38225513  4.17455447
  -0.42035730  3.65444076  0.59447505
   1.68657725  1.46075171  2.98163856
   2.11269655  5.11978372 -2.98780435
   0.55938443  0.96913423  0.39375755
   0.57146307  2.92490145 -1.99301755
   2.24773549  3.89294023  1.58447348
   3.37282902 -0.00084350  4.77923338
   3.37444934  0.00145908  1.19915396
   3.93544021  4.88128425 -0.80230162
   3.94344969  2.92234692  3.97225383
   5.62069609  1.95722630  0.39217441
 


--------------------------------------------------------------------------------------------------------


 k-point   1 :   0.1250 0.1250 0.1250  plane waves:    7610
 k-point   2 :   0.3750 0.1250 0.1250  plane waves:    7606
 k-point   3 :  -0.1250 0.1250 0.1250  plane waves:    7623
 k-point   4 :   0.3750 0.3750 0.1250  plane waves:    7600
 k-point   5 :  -0.3750 0.3750 0.1250  plane waves:    7608
 k-point   6 :  -0.1250 0.3750 0.1250  plane waves:    7608
 k-point   7 :  -0.3750-0.3750 0.1250  plane waves:    7630
 k-point   8 :  -0.1250-0.3750 0.1250  plane waves:    7612
 k-point   9 :  -0.1250-0.1250 0.1250  plane waves:    7627
 k-point  10 :  -0.3750 0.3750 0.3750  plane waves:    7612
 k-point  11 :  -0.3750-0.3750 0.3750  plane waves:    7624

 maximum and minimum number of plane-waves per node :      7630     7600

 maximum number of plane-waves:      7630
 maximum index in each direction: 
   IXMAX=   13   IYMAX=   13   IZMAX=   13
   IXMIN=  -13   IYMIN=  -13   IZMIN=  -13


 serial   3D FFT for wavefunctions
 parallel 3D FFT for charge:
    minimum data exchange during FFTs selected (reduces bandwidth)


 total amount of memory used by VASP MPI-rank0   159837. kBytes
=======================================================================

   base      :      30000. kBytes
   nonlr-proj:      21088. kBytes
   fftplans  :      11412. kBytes
   grid      :      40824. kBytes
   one-center:       1376. kBytes
   wavefun   :      55137. kBytes
 
     INWAV:  cpu time      0.0002: real time      0.0008
 Broyden mixing: mesh for mixing (old mesh)
   NGX = 27   NGY = 27   NGZ = 27
  (NGX  =108   NGY  =108   NGZ  =108)
  gives a total of  19683 points

 initial charge density was supplied:
 charge density of overlapping atoms calculated
 number of electron     114.0000000 magnetization      21.2000000
 keeping initial charge density in first step


--------------------------------------------------------------------------------------------------------


 Maximum index for non-local projection operator         15194
 Maximum index for augmentation-charges         10688 (set IRDMAX)


--------------------------------------------------------------------------------------------------------


 First call to EWALD:  gamma=   0.270
 Maximum number of real-space cells 3x 3x 3
 Maximum number of reciprocal cells 3x 3x 3

    FEWALD:  cpu time      0.0008: real time      0.0008


--------------------------------------- Iteration      1(   1)  ---------------------------------------


    POTLOK:  cpu time      0.1139: real time      0.1571
    SETDIJ:  cpu time      0.0257: real time      0.0258
     EDDAV:  cpu time      2.3010: real time      2.3048
       DOS:  cpu time      0.0009: real time      0.0009
    --------------------------------------------
      LOOP:  cpu time      2.4416: real time      2.4886

 eigenvalue-minimisations  :  4568
 total energy-change (2. order) : 0.1107223E+04  (-0.4305734E+04)
 number of electron     114.0000000 magnetization      21.2000000
 augmentation part      114.0000000 magnetization      21.2000000

 Free energy of the ion-electron system (eV)
  ---------------------------------------------------
  alpha Z        PSCENC =       585.55554804
  Ewald energy   TEWEN  =     -7689.84110880
  -Hartree energ DENC   =     -2164.40024065
  -exchange      EXHF   =         0.00000000
  -V(xc)+E(xc)   XCENC  =       237.84435300
  PAW double counting   =      7916.37457220    -8031.35963574
  entropy T*S    EENTRO =        -0.07060440
  eigenvalues    EBANDS =       509.51479473
  atomic energy  EATOM  =      9743.60574178
  Solvation  Ediel_sol  =         0.00000000
  ---------------------------------------------------
  free energy    TOTEN  =      1107.22342015 eV

  energy without entropy =     1107.29402456  energy(sigma->0) =     1107.25872236


--------------------------------------------------------------------------------------------------------




--------------------------------------- Iteration      1(   2)  ---------------------------------------


     EDDAV:  cpu time      2.1397: real time      2.1420
       DOS:  cpu time      0.0008: real time      0.0008
    --------------------------------------------
      LOOP:  cpu time      2.1405: real time      2.1429

 eigenvalue-minimisations  :  4232
 total energy-change (2. order) :-0.9381721E+03  (-0.8360825E+03)
 number of electron     114.0000000 magnetization      21.2000000
 augmentation part      114.0000000 magnetization      21.2000000

 Free energy of the ion-electron system (eV)
  ---------------------------------------------------
  alpha Z        PSCENC =       585.55554804
  Ewald energy   TEWEN  =     -7689.84110880
  -Hartree energ DENC   =     -2164.40024065
  -exchange      EXHF   =         0.00000000
  -V(xc)+E(xc)   XCENC  =       237.84435300
  PAW double counting   =      7916.37457220    -8031.35963574
  entropy T*S    EENTRO =        -0.12603212
  eigenvalues    EBANDS =      -428.60183539
  atomic energy  EATOM  =      9743.60574178
  Solvation  Ediel_sol  =         0.00000000
  ---------------------------------------------------
  free energy    TOTEN  =       169.05136232 eV

  energy without entropy =      169.17739444  energy(sigma->0) =      169.11437838


--------------------------------------------------------------------------------------------------------




--------------------------------------- Iteration      1(   3)  ---------------------------------------


     EDDAV:  cpu time      2.2092: real time      2.2111
       DOS:  cpu time      0.0009: real time      0.0009
    --------------------------------------------
      LOOP:  cpu time      2.2101: real time      2.2120

 eigenvalue-minimisations  :  4408
 total energy-change (2. order) :-0.2356919E+03  (-0.2137350E+03)
 number of electron     114.0000000 magnetization      21.2000000
 augmentation part      114.0000000 magnetization      21.2000000

 Free energy of the ion-electron system (eV)
  ---------------------------------------------------
  alpha Z        PSCENC =       585.55554804
  Ewald energy   TEWEN  =     -7689.84110880
  -Hartree energ DENC   =     -2164.40024065
  -exchange      EXHF   =         0.00000000
  -V(xc)+E(xc)   XCENC  =       237.84435300
  PAW double counting   =      7916.37457220    -8031.35963574
  entropy T*S    EENTRO =        -0.28578829
  eigenvalues    EBANDS =      -664.13401804
  atomic energy  EATOM  =      9743.60574178
  Solvation  Ediel_sol  =         0.00000000
  ---------------------------------------------------
  free energy    TOTEN  =       -66.64057650 eV

  energy without entropy =      -66.35478821  energy(sigma->0) =      -66.49768236


--------------------------------------------------------------------------------------------------------




--------------------------------------- Iteration      1(   4)  ---------------------------------------


     EDDAV:  cpu time      2.4437: real time      2.4453
       DOS:  cpu time      0.0009: real time      0.0009
    --------------------------------------------
      LOOP:  cpu time      2.4446: real time      2.4462

 eigenvalue-minimisations  :  4992
 total energy-change (2. order) :-0.2447707E+02  (-0.2349199E+02)
 number of electron     114.0000000 magnetization      21.2000000
 augmentation part      114.0000000 magnetization      21.2000000

 Free energy of the ion-electron system (eV)
  ---------------------------------------------------
  alpha Z        PSCENC =       585.55554804
  Ewald energy   TEWEN  =     -7689.84110880
  -Hartree energ DENC   =     -2164.40024065
  -exchange      EXHF   =         0.00000000
  -V(xc)+E(xc)   XCENC  =       237.84435300
  PAW double counting   =      7916.37457220    -8031.35963574
  entropy T*S    EENTRO =        -0.55020003
  eigenvalues    EBANDS =      -688.34667465
  atomic energy  EATOM  =      9743.60574178
  Solvation  Ediel_sol  =         0.00000000
  ---------------------------------------------------
  free energy    TOTEN  =       -91.11764486 eV

  energy without entropy =      -90.56744483  energy(sigma->0) =      -90.84254484


--------------------------------------------------------------------------------------------------------




--------------------------------------- Iteration      1(   5)  ---------------------------------------


     EDDAV:  cpu time      3.0478: real time      3.0500
       DOS:  cpu time      0.0009: real time      0.0009
    CHARGE:  cpu time      0.0922: real time      0.0922
    MIXING:  cpu time      0.0028: real time      0.0028
    --------------------------------------------
      LOOP:  cpu time      3.1437: real time      3.1459

 eigenvalue-minimisations  :  6544
 total energy-change (2. order) :-0.1813466E+01  (-0.1778972E+01)
 number of electron     114.0000007 magnetization      11.5850241
 augmentation part       14.2795052 magnetization       8.5019981

 Broyden mixing:
  rms(total) = 0.48157E+01    rms(broyden)= 0.48157E+01
  rms(prec ) = 0.77731E+01
  weight for this iteration     100.00

 Free energy of the ion-electron system (eV)
  ---------------------------------------------------
  alpha Z        PSCENC =       585.55554804
  Ewald energy   TEWEN  =     -7689.84110880
  -Hartree energ DENC   =     -2164.40024065
  -exchange      EXHF   =         0.00000000
  -V(xc)+E(xc)   XCENC  =       237.84435300
  PAW double counting   =      7916.37457220    -8031.35963574
  entropy T*S    EENTRO =        -0.55303258
  eigenvalues    EBANDS =      -690.15730808
  atomic energy  EATOM  =      9743.60574178
  Solvation  Ediel_sol  =         0.00000000
  ---------------------------------------------------
  free energy    TOTEN  =       -92.93111083 eV

  energy without entropy =      -92.37807826  energy(sigma->0) =      -92.65459455


--------------------------------------------------------------------------------------------------------




--------------------------------------- Iteration      1(   6)  ---------------------------------------


    POTLOK:  cpu time      0.0092: real time      0.0105
    SETDIJ:  cpu time      0.0241: real time      0.0241
    EDDIAG:  cpu time      0.1367: real time      0.1369
  RMM-DIIS:  cpu time      1.0736: real time      1.0752
    ORTHCH:  cpu time      0.0505: real time      0.0505
       DOS:  cpu time      0.0009: real time      0.0009
    CHARGE:  cpu time      0.0874: real time      0.0875
    MIXING:  cpu time      0.0035: real time      0.0063
    --------------------------------------------
      LOOP:  cpu time      1.3860: real time      1.3918

 eigenvalue-minimisations  :  4437
 total energy-change (2. order) :-0.1721961E+03  (-0.1229274E+02)
 number of electron     114.0000011 magnetization      10.4711605
 augmentation part       32.1460135 magnetization      10.3217690

 Broyden mixing:
  rms(total) = 0.21213E+02    rms(broyden)= 0.21213E+02
  rms(prec ) = 0.25825E+02
  weight for this iteration     100.00

 eigenvalues of (default mixing * dielectric matrix)
  average eigenvalue GAMMA=   0.0554
  0.0554

 Free energy of the ion-electron system (eV)
  ---------------------------------------------------
  alpha Z        PSCENC =       585.55554804
  Ewald energy   TEWEN  =     -7689.84110880
  -Hartree energ DENC   =     -1900.23907500
  -exchange      EXHF   =         0.00000000
  -V(xc)+E(xc)   XCENC  =       228.44146669
  PAW double counting   =      8391.96608161    -8418.46810425
  entropy T*S    EENTRO =        -0.22111090
  eigenvalues    EBANDS =     -1205.92669820
  atomic energy  EATOM  =      9743.60574178
  Solvation  Ediel_sol  =         0.00000000
  ---------------------------------------------------
  free energy    TOTEN  =      -265.12725903 eV

  energy without entropy =     -264.90614813  energy(sigma->0) =     -265.01670358


--------------------------------------------------------------------------------------------------------




--------------------------------------- Iteration      1(   7)  ---------------------------------------


    POTLOK:  cpu time      0.0095: real time      0.0099
    SETDIJ:  cpu time      0.0247: real time      0.0247
    EDDIAG:  cpu time      0.1371: real time      0.1372
  RMM-DIIS:  cpu time      0.9313: real time      0.9316
    ORTHCH:  cpu time      0.0506: real time      0.0506
       DOS:  cpu time      0.0008: real time      0.0008
    CHARGE:  cpu time      0.0867: real time      0.0868
    MIXING:  cpu time      0.0028: real time      0.0028
    --------------------------------------------
      LOOP:  cpu time      1.2435: real time      1.2443

 eigenvalue-minimisations  :  4060
 total energy-change (2. order) : 0.1408021E+03  (-0.1166523E+02)
 number of electron     114.0000010 magnetization      10.4509247
 augmentation part       29.5941602 magnetization       8.3766021

 Broyden mixing:
  rms(total) = 0.76535E+01    rms(broyden)= 0.76535E+01
  rms(prec ) = 0.13397E+02
  weight for this iteration     100.00

 eigenvalues of (default mixing * dielectric matrix)
  average eigenvalue GAMMA=   0.2215
  0.2215  0.2215

 Free energy of the ion-electron system (eV)
  ---------------------------------------------------
  alpha Z        PSCENC =       585.55554804
  Ewald energy   TEWEN  =     -7689.84110880
  -Hartree energ DENC   =     -2014.39325239
  -exchange      EXHF   =         0.00000000
  -V(xc)+E(xc)   XCENC  =       231.20758210
  PAW double counting   =      8894.93641292    -8966.30270645
  entropy T*S    EENTRO =        -0.27798390
  eigenvalues    EBANDS =      -908.81540956
  atomic energy  EATOM  =      9743.60574178
  Solvation  Ediel_sol  =         0.00000000
  ---------------------------------------------------
  free energy    TOTEN  =      -124.32517626 eV

  energy without entropy =     -124.04719236  energy(sigma->0) =     -124.18618431


--------------------------------------------------------------------------------------------------------




--------------------------------------- Iteration      1(   8)  ---------------------------------------


    POTLOK:  cpu time      0.0093: real time      0.0102
    SETDIJ:  cpu time      0.0239: real time      0.0239
    EDDIAG:  cpu time      0.1368: real time      0.1368
  RMM-DIIS:  cpu time      0.9638: real time      0.9642
    ORTHCH:  cpu time      0.0507: real time      0.0507
       DOS:  cpu time      0.0008: real time      0.0008
    CHARGE:  cpu time      0.0847: real time      0.0847
    MIXING:  cpu time      0.0028: real time      0.0028
    --------------------------------------------
      LOOP:  cpu time      1.2727: real time      1.2741

 eigenvalue-minimisations  :  4283
 total energy-change (2. order) : 0.4151695E+02  (-0.5157598E+01)
 number of electron     114.0000006 magnetization       9.7697207
 augmentation part       16.6982780 magnetization       9.0309093

 Broyden mixing:
  rms(total) = 0.30810E+01    rms(broyden)= 0.30809E+01
  rms(prec ) = 0.43033E+01
  weight for this iteration     100.00

 eigenvalues of (default mixing * dielectric matrix)
  average eigenvalue GAMMA=   0.3909
  0.6741  0.2493  0.2493

 Free energy of the ion-electron system (eV)
  ---------------------------------------------------
  alpha Z        PSCENC =       585.55554804
  Ewald energy   TEWEN  =     -7689.84110880
  -Hartree energ DENC   =     -2126.75336786
  -exchange      EXHF   =         0.00000000
  -V(xc)+E(xc)   XCENC  =       234.79991348
  PAW double counting   =      9085.55445767    -9196.68266983
  entropy T*S    EENTRO =        -0.54795766
  eigenvalues    EBANDS =      -718.49878044
  atomic energy  EATOM  =      9743.60574178
  Solvation  Ediel_sol  =         0.00000000
  ---------------------------------------------------
  free energy    TOTEN  =       -82.80822362 eV

  energy without entropy =      -82.26026596  energy(sigma->0) =      -82.53424479


--------------------------------------------------------------------------------------------------------




--------------------------------------- Iteration      1(   9)  ---------------------------------------


    POTLOK:  cpu time      0.0091: real time      0.0100
    SETDIJ:  cpu time      0.0243: real time      0.0243
    EDDIAG:  cpu time      0.1371: real time      0.1372
  RMM-DIIS:  cpu time      1.0246: real time      1.0250
    ORTHCH:  cpu time      0.0503: real time      0.0503
       DOS:  cpu time      0.0008: real time      0.0008
    CHARGE:  cpu time      0.0846: real time      0.0846
    MIXING:  cpu time      0.0030: real time      0.0030
    --------------------------------------------
      LOOP:  cpu time      1.3338: real time      1.3352

 eigenvalue-minimisations  :  4578
 total energy-change (2. order) : 0.3981914E-01  (-0.7059249E+00)
 number of electron     114.0000007 magnetization       9.6447724
 augmentation part       17.4593554 magnetization       9.5175435

 Broyden mixing:
  rms(total) = 0.20571E+01    rms(broyden)= 0.20571E+01
  rms(prec ) = 0.29660E+01
  weight for this iteration     100.00

 eigenvalues of (default mixing * dielectric matrix)
  average eigenvalue GAMMA=   0.6395
  1.3041  0.2486  0.2486  0.7568

 Free energy of the ion-electron system (eV)
  ---------------------------------------------------
  alpha Z        PSCENC =       585.55554804
  Ewald energy   TEWEN  =     -7689.84110880
  -Hartree energ DENC   =     -2120.10387959
  -exchange      EXHF   =         0.00000000
  -V(xc)+E(xc)   XCENC  =       237.93317483
  PAW double counting   =      9727.38098867    -9838.12718510
  entropy T*S    EENTRO =        -0.44374691
  eigenvalues    EBANDS =      -728.72793740
  atomic energy  EATOM  =      9743.60574178
  Solvation  Ediel_sol  =         0.00000000
  ---------------------------------------------------
  free energy    TOTEN  =       -82.76840448 eV

  energy without entropy =      -82.32465757  energy(sigma->0) =      -82.54653102


--------------------------------------------------------------------------------------------------------




--------------------------------------- Iteration      1(  10)  ---------------------------------------


    POTLOK:  cpu time      0.0093: real time      0.0103
    SETDIJ:  cpu time      0.0243: real time      0.0243
    EDDIAG:  cpu time      0.1371: real time      0.1371
  RMM-DIIS:  cpu time      1.1000: real time      1.1013
    ORTHCH:  cpu time      0.0507: real time      0.0507
       DOS:  cpu time      0.0008: real time      0.0008
    CHARGE:  cpu time      0.0846: real time      0.0846
    MIXING:  cpu time      0.0033: real time      0.0033
    --------------------------------------------
      LOOP:  cpu time      1.4101: real time      1.4125

 eigenvalue-minimisations  :  4693
 total energy-change (2. order) :-0.2819830E+00  (-0.1412482E+00)
 number of electron     114.0000008 magnetization      11.9977892
 augmentation part       20.0542345 magnetization      12.1626068

 Broyden mixing:
  rms(total) = 0.16035E+01    rms(broyden)= 0.16035E+01
  rms(prec ) = 0.17379E+01
  weight for this iteration     100.00

 eigenvalues of (default mixing * dielectric matrix)
  average eigenvalue GAMMA=   0.8062
  1.8305  1.3047  0.2466  0.2466  0.4029

 Free energy of the ion-electron system (eV)
  ---------------------------------------------------
  alpha Z        PSCENC =       585.55554804
  Ewald energy   TEWEN  =     -7689.84110880
  -Hartree energ DENC   =     -2114.25026068
  -exchange      EXHF   =         0.00000000
  -V(xc)+E(xc)   XCENC  =       238.99552841
  PAW double counting   =     10411.12199126   -10518.63683708
  entropy T*S    EENTRO =        -0.24067220
  eigenvalues    EBANDS =      -739.36031821
  atomic energy  EATOM  =      9743.60574178
  Solvation  Ediel_sol  =         0.00000000
  ---------------------------------------------------
  free energy    TOTEN  =       -83.05038750 eV

  energy without entropy =      -82.80971530  energy(sigma->0) =      -82.93005140


--------------------------------------------------------------------------------------------------------




--------------------------------------- Iteration      1(  11)  ---------------------------------------


    POTLOK:  cpu time      0.0092: real time      0.0101
    SETDIJ:  cpu time      0.0252: real time      0.0252
    EDDIAG:  cpu time      0.1370: real time      0.1371
  RMM-DIIS:  cpu time      1.1047: real time      1.1051
    ORTHCH:  cpu time      0.0504: real time      0.0504
       DOS:  cpu time      0.0008: real time      0.0008
    CHARGE:  cpu time      0.0852: real time      0.0852
    MIXING:  cpu time      0.0032: real time      0.0032
    --------------------------------------------
      LOOP:  cpu time      1.4156: real time      1.4171

 eigenvalue-minimisations  :  4789
 total energy-change (2. order) :-0.6452366E+00  (-0.6844387E-01)
 number of electron     114.0000008 magnetization      11.9262632
 augmentation part       20.4116835 magnetization      12.3834772

 Broyden mixing:
  rms(total) = 0.11790E+01    rms(broyden)= 0.11790E+01
  rms(prec ) = 0.15658E+01
  weight for this iteration     100.00

 eigenvalues of (default mixing * dielectric matrix)
  average eigenvalue GAMMA=   0.8397
  2.4596  0.2469  0.2469  0.8629  0.7260  0.4962

 Free energy of the ion-electron system (eV)
  ---------------------------------------------------
  alpha Z        PSCENC =       585.55554804
  Ewald energy   TEWEN  =     -7689.84110880
  -Hartree energ DENC   =     -2118.12753758
  -exchange      EXHF   =         0.00000000
  -V(xc)+E(xc)   XCENC  =       244.01782599
  PAW double counting   =     10936.51260438   -11039.25490491
  entropy T*S    EENTRO =        -0.22092036
  eigenvalues    EBANDS =      -745.94287264
  atomic energy  EATOM  =      9743.60574178
  Solvation  Ediel_sol  =         0.00000000
  ---------------------------------------------------
  free energy    TOTEN  =       -83.69562410 eV

  energy without entropy =      -83.47470374  energy(sigma->0) =      -83.58516392


--------------------------------------------------------------------------------------------------------




--------------------------------------- Iteration      1(  12)  ---------------------------------------


    POTLOK:  cpu time      0.0091: real time      0.0102
    SETDIJ:  cpu time      0.0243: real time      0.0243
    EDDIAG:  cpu time      0.1369: real time      0.1370
  RMM-DIIS:  cpu time      1.2088: real time      1.2102
    ORTHCH:  cpu time      0.0507: real time      0.0507
       DOS:  cpu time      0.0009: real time      0.0009
    CHARGE:  cpu time      0.0845: real time      0.0845
    MIXING:  cpu time      0.0032: real time      0.0032
    --------------------------------------------
      LOOP:  cpu time      1.5184: real time      1.5211

 eigenvalue-minimisations  :  5186
 total energy-change (2. order) :-0.2484048E+00  (-0.2516881E-01)
 number of electron     114.0000008 magnetization      12.2171573
 augmentation part       20.4166798 magnetization      12.6729137

 Broyden mixing:
  rms(total) = 0.71124E+00    rms(broyden)= 0.71124E+00
  rms(prec ) = 0.12733E+01
  weight for this iteration     100.00

 eigenvalues of (default mixing * dielectric matrix)
  average eigenvalue GAMMA=   0.8848
  2.4729  1.0435  1.0435  0.2468  0.2468  0.6792  0.4607

 Free energy of the ion-electron system (eV)
  ---------------------------------------------------
  alpha Z        PSCENC =       585.55554804
  Ewald energy   TEWEN  =     -7689.84110880
  -Hartree energ DENC   =     -2118.34031041
  -exchange      EXHF   =         0.00000000
  -V(xc)+E(xc)   XCENC  =       244.44723647
  PAW double counting   =     11149.30294136   -11252.60952253
  entropy T*S    EENTRO =        -0.21997597
  eigenvalues    EBANDS =      -745.84457881
  atomic energy  EATOM  =      9743.60574178
  Solvation  Ediel_sol  =         0.00000000
  ---------------------------------------------------
  free energy    TOTEN  =       -83.94402888 eV

  energy without entropy =      -83.72405291  energy(sigma->0) =      -83.83404090


--------------------------------------------------------------------------------------------------------




--------------------------------------- Iteration      1(  13)  ---------------------------------------


    POTLOK:  cpu time      0.0097: real time      0.0102
    SETDIJ:  cpu time      0.0241: real time      0.0241
    EDDIAG:  cpu time      0.1371: real time      0.1373
  RMM-DIIS:  cpu time      1.0421: real time      1.0428
    ORTHCH:  cpu time      0.0506: real time      0.0506
       DOS:  cpu time      0.0009: real time      0.0009
    CHARGE:  cpu time      0.0860: real time      0.0860
    MIXING:  cpu time      0.0035: real time      0.0035
    --------------------------------------------
      LOOP:  cpu time      1.3539: real time      1.3553

 eigenvalue-minimisations  :  4492
 total energy-change (2. order) : 0.3433375E+00  (-0.1594244E-01)
 number of electron     114.0000008 magnetization      12.3351863
 augmentation part       20.1725540 magnetization      12.7657072

 Broyden mixing:
  rms(total) = 0.44778E+00    rms(broyden)= 0.44778E+00
  rms(prec ) = 0.87982E+00
  weight for this iteration     100.00

 eigenvalues of (default mixing * dielectric matrix)
  average eigenvalue GAMMA=   0.8049
  2.3874  1.0946  0.2467  0.2467  0.8616  0.6808  0.5524  0.3686

 Free energy of the ion-electron system (eV)
  ---------------------------------------------------
  alpha Z        PSCENC =       585.55554804
  Ewald energy   TEWEN  =     -7689.84110880
  -Hartree energ DENC   =     -2124.14945100
  -exchange      EXHF   =         0.00000000
  -V(xc)+E(xc)   XCENC  =       244.50200137
  PAW double counting   =     11151.55171387   -11255.54712010
  entropy T*S    EENTRO =        -0.22757763
  eigenvalues    EBANDS =      -739.05043890
  atomic energy  EATOM  =      9743.60574178
  Solvation  Ediel_sol  =         0.00000000
  ---------------------------------------------------
  free energy    TOTEN  =       -83.60069137 eV

  energy without entropy =      -83.37311374  energy(sigma->0) =      -83.48690256


--------------------------------------------------------------------------------------------------------




--------------------------------------- Iteration      1(  14)  ---------------------------------------


    POTLOK:  cpu time      0.0094: real time      0.0098
    SETDIJ:  cpu time      0.0243: real time      0.0243
    EDDIAG:  cpu time      0.1371: real time      0.1372
  RMM-DIIS:  cpu time      1.0523: real time      1.0531
    ORTHCH:  cpu time      0.0505: real time      0.0505
       DOS:  cpu time      0.0008: real time      0.0008
    CHARGE:  cpu time      0.0842: real time      0.0842
    MIXING:  cpu time      0.0034: real time      0.0034
    --------------------------------------------
      LOOP:  cpu time      1.3621: real time      1.3634

 eigenvalue-minimisations  :  4469
 total energy-change (2. order) : 0.1635608E+00  (-0.1561962E-01)
 number of electron     114.0000008 magnetization      11.4991173
 augmentation part       19.7168300 magnetization      12.0175428

 Broyden mixing:
  rms(total) = 0.42249E+00    rms(broyden)= 0.42249E+00
  rms(prec ) = 0.48570E+00
  weight for this iteration     100.00

 eigenvalues of (default mixing * dielectric matrix)
  average eigenvalue GAMMA=   0.8106
  2.3947  1.0402  1.0402  0.2468  0.2468  0.6466  0.4777  0.6013  0.6013

 Free energy of the ion-electron system (eV)
  ---------------------------------------------------
  alpha Z        PSCENC =       585.55554804
  Ewald energy   TEWEN  =     -7689.84110880
  -Hartree energ DENC   =     -2128.77753105
  -exchange      EXHF   =         0.00000000
  -V(xc)+E(xc)   XCENC  =       244.59348437
  PAW double counting   =     11144.80444865   -11249.64239580
  entropy T*S    EENTRO =        -0.24967790
  eigenvalues    EBANDS =      -733.48563990
  atomic energy  EATOM  =      9743.60574178
  Solvation  Ediel_sol  =         0.00000000
  ---------------------------------------------------
  free energy    TOTEN  =       -83.43713062 eV

  energy without entropy =      -83.18745272  energy(sigma->0) =      -83.31229167


--------------------------------------------------------------------------------------------------------




--------------------------------------- Iteration      1(  15)  ---------------------------------------


    POTLOK:  cpu time      0.0092: real time      0.0101
    SETDIJ:  cpu time      0.0245: real time      0.0245
    EDDIAG:  cpu time      0.1370: real time      0.1371
  RMM-DIIS:  cpu time      1.1050: real time      1.1057
    ORTHCH:  cpu time      0.0506: real time      0.0506
       DOS:  cpu time      0.0008: real time      0.0008
    CHARGE:  cpu time      0.0853: real time      0.0856
    MIXING:  cpu time      0.0037: real time      0.0037
    --------------------------------------------
      LOOP:  cpu time      1.4161: real time      1.4181

 eigenvalue-minimisations  :  4681
 total energy-change (2. order) :-0.8847289E-01  (-0.5552388E-02)
 number of electron     114.0000008 magnetization      11.2027212
 augmentation part       19.5901927 magnetization      11.8014094

 Broyden mixing:
  rms(total) = 0.23038E+00    rms(broyden)= 0.23038E+00
  rms(prec ) = 0.26094E+00
  weight for this iteration     100.00

 eigenvalues of (default mixing * dielectric matrix)
  average eigenvalue GAMMA=   0.9616
  2.6266  1.5191  1.5191  0.2468  0.2468  0.8554  0.8554  0.4697  0.6386  0.6386

 Free energy of the ion-electron system (eV)
  ---------------------------------------------------
  alpha Z        PSCENC =       585.55554804
  Ewald energy   TEWEN  =     -7689.84110880
  -Hartree energ DENC   =     -2128.26833961
  -exchange      EXHF   =         0.00000000
  -V(xc)+E(xc)   XCENC  =       243.49818747
  PAW double counting   =     11134.15044868   -11239.24557692
  entropy T*S    EENTRO =        -0.25391328
  eigenvalues    EBANDS =      -732.72659087
  atomic energy  EATOM  =      9743.60574178
  Solvation  Ediel_sol  =         0.00000000
  ---------------------------------------------------
  free energy    TOTEN  =       -83.52560351 eV

  energy without entropy =      -83.27169023  energy(sigma->0) =      -83.39864687


--------------------------------------------------------------------------------------------------------




--------------------------------------- Iteration      1(  16)  ---------------------------------------


    POTLOK:  cpu time      0.0094: real time      0.0104
    SETDIJ:  cpu time      0.0245: real time      0.0245
    EDDIAG:  cpu time      0.1369: real time      0.1371
  RMM-DIIS:  cpu time      1.0594: real time      1.0602
    ORTHCH:  cpu time      0.0503: real time      0.0503
       DOS:  cpu time      0.0008: real time      0.0008
    CHARGE:  cpu time      0.0859: real time      0.0860
    MIXING:  cpu time      0.0038: real time      0.0038
    --------------------------------------------
      LOOP:  cpu time      1.3709: real time      1.3730

 eigenvalue-minimisations  :  4385
 total energy-change (2. order) :-0.8434866E-02  (-0.2063707E-02)
 number of electron     114.0000008 magnetization      11.3252310
 augmentation part       19.4707856 magnetization      11.9565626

 Broyden mixing:
  rms(total) = 0.14875E+00    rms(broyden)= 0.14875E+00
  rms(prec ) = 0.14978E+00
  weight for this iteration     100.00

 eigenvalues of (default mixing * dielectric matrix)
  average eigenvalue GAMMA=   0.9525
  2.6107  1.3922  1.3922  0.2468  0.2468  0.9761  0.9761  0.7728  0.7728  0.6212
  0.4704

 Free energy of the ion-electron system (eV)
  ---------------------------------------------------
  alpha Z        PSCENC =       585.55554804
  Ewald energy   TEWEN  =     -7689.84110880
  -Hartree energ DENC   =     -2128.88476764
  -exchange      EXHF   =         0.00000000
  -V(xc)+E(xc)   XCENC  =       243.05493279
  PAW double counting   =     11134.64763612   -11239.33067551
  entropy T*S    EENTRO =        -0.25996813
  eigenvalues    EBANDS =      -732.08137702
  atomic energy  EATOM  =      9743.60574178
  Solvation  Ediel_sol  =         0.00000000
  ---------------------------------------------------
  free energy    TOTEN  =       -83.53403837 eV

  energy without entropy =      -83.27407024  energy(sigma->0) =      -83.40405431


--------------------------------------------------------------------------------------------------------




--------------------------------------- Iteration      1(  17)  ---------------------------------------


    POTLOK:  cpu time      0.0091: real time      0.0100
    SETDIJ:  cpu time      0.0243: real time      0.0243
    EDDIAG:  cpu time      0.1370: real time      0.1370
  RMM-DIIS:  cpu time      0.9281: real time      0.9290
    ORTHCH:  cpu time      0.0506: real time      0.0506
       DOS:  cpu time      0.0009: real time      0.0009
    CHARGE:  cpu time      0.0846: real time      0.0847
    MIXING:  cpu time      0.0038: real time      0.0038
    --------------------------------------------
      LOOP:  cpu time      1.2385: real time      1.2403

 eigenvalue-minimisations  :  3656
 total energy-change (2. order) :-0.3363637E-02  (-0.9009307E-03)
 number of electron     114.0000008 magnetization      11.2971726
 augmentation part       19.6172264 magnetization      11.8926542

 Broyden mixing:
  rms(total) = 0.12653E+00    rms(broyden)= 0.12653E+00
  rms(prec ) = 0.19952E+00
  weight for this iteration     100.00

 eigenvalues of (default mixing * dielectric matrix)
  average eigenvalue GAMMA=   0.9451
  2.5465  1.4225  1.4225  1.3815  0.2468  0.2468  0.7504  0.7504  0.7857  0.7857
  0.4848  0.5178

 Free energy of the ion-electron system (eV)
  ---------------------------------------------------
  alpha Z        PSCENC =       585.55554804
  Ewald energy   TEWEN  =     -7689.84110880
  -Hartree energ DENC   =     -2128.40408089
  -exchange      EXHF   =         0.00000000
  -V(xc)+E(xc)   XCENC  =       243.16183415
  PAW double counting   =     11132.67652687   -11236.84442121
  entropy T*S    EENTRO =        -0.25227190
  eigenvalues    EBANDS =      -733.19517005
  atomic energy  EATOM  =      9743.60574178
  Solvation  Ediel_sol  =         0.00000000
  ---------------------------------------------------
  free energy    TOTEN  =       -83.53740201 eV

  energy without entropy =      -83.28513011  energy(sigma->0) =      -83.41126606


--------------------------------------------------------------------------------------------------------




--------------------------------------- Iteration      1(  18)  ---------------------------------------


    POTLOK:  cpu time      0.0092: real time      0.0102
    SETDIJ:  cpu time      0.0248: real time      0.0249
    EDDIAG:  cpu time      0.1368: real time      0.1368
  RMM-DIIS:  cpu time      0.9073: real time      0.9078
    ORTHCH:  cpu time      0.0503: real time      0.0503
       DOS:  cpu time      0.0008: real time      0.0008
    --------------------------------------------
      LOOP:  cpu time      1.1292: real time      1.1308

 eigenvalue-minimisations  :  3559
 total energy-change (2. order) : 0.8037364E-04  (-0.6351356E-03)
 number of electron     114.0000008 magnetization      11.2971726
 augmentation part       19.6172264 magnetization      11.8926542

 Free energy of the ion-electron system (eV)
  ---------------------------------------------------
  alpha Z        PSCENC =       585.55554804
  Ewald energy   TEWEN  =     -7689.84110880
  -Hartree energ DENC   =     -2128.65983687
  -exchange      EXHF   =         0.00000000
  -V(xc)+E(xc)   XCENC  =       243.12288071
  PAW double counting   =     11122.28967767   -11226.21253566
  entropy T*S    EENTRO =        -0.25227641
  eigenvalues    EBANDS =      -733.14541210
  atomic energy  EATOM  =      9743.60574178
  Solvation  Ediel_sol  =         0.00000000
  ---------------------------------------------------
  free energy    TOTEN  =       -83.53732164 eV

  energy without entropy =      -83.28504523  energy(sigma->0) =      -83.41118343


--------------------------------------------------------------------------------------------------------




 average (electrostatic) potential at core
  the test charge radii are     1.1829  1.3169  0.9698
  (the norm of the test charge is              1.0000)
       1 -38.6682       2 -38.6682       3 -24.7005       4 -24.7005       5 -24.7005
       6 -24.7005       7 -86.6678       8 -86.6678       9 -86.6678      10 -86.6678
      11 -86.6678      12 -86.6678      13 -86.6678      14 -86.6678
 
 
 
 E-fermi :   3.5762     XC(G=0): -10.5199     alpha+bet :-11.5889

 Fermi energy:         3.5761759646

 spin component 1

 k-point     1 :       0.1250    0.1250    0.1250
  band No.  band energies     occupation 
      1     -36.8922      1.00000
      2     -36.8904      1.00000
      3     -16.9843      1.00000
      4     -16.9693      1.00000
      5     -16.9541      1.00000
      6     -16.9205      1.00000
      7     -16.8873      1.00000
      8     -16.8776      1.00000
      9     -16.8751      1.00000
     10     -16.8548      1.00000
     11     -16.8463      1.00000
     12     -16.8003      1.00000
     13     -16.7879      1.00000
     14     -16.7743      1.00000
     15     -15.6089      1.00000
     16     -15.5969      1.00000
     17     -15.5824      1.00000
     18     -15.5570      1.00000
     19     -15.5358      1.00000
     20     -15.5264      1.00000
     21      -8.7021      1.00000
     22      -8.0154      1.00000
     23      -7.6297      1.00000
     24      -7.6092      1.00000
     25      -7.3317      1.00000
     26      -7.3183      1.00000
     27      -7.2036      1.00000
     28      -7.1920      1.00000
     29      -0.3760      1.00000
     30      -0.3717      1.00000
     31      -0.0162      1.00000
     32       0.2684      1.00000
     33       0.3514      1.00000
     34       0.5896      1.00000
     35       0.6763      1.00000
     36       1.0482      1.00000
     37       1.2084      1.00000
     38       1.2422      1.00000
     39       1.2959      1.00000
     40       1.7760      1.00000
     41       2.0203      1.00000
     42       2.2068      1.00000
     43       2.2219      1.00000
     44       2.4628      1.00000
     45       2.6189      1.00000
     46       2.6366      1.00000
     47       2.8099      1.00000
     48       2.8797      1.00000
     49       2.8865      1.00000
     50       2.9819      0.99999
     51       3.0034      0.99997
     52       3.0301      0.99994
     53       3.0432      0.99992
     54       3.0875      0.99972
     55       3.1132      0.99947
     56       3.1366      0.99906
     57       3.1543      0.99857
     58       3.1755      0.99770
     59       3.1937      0.99658
     60       3.2756      0.98321
     61       3.4364      0.83848
     62       3.5121      0.67473
     63       3.5462      0.58396
     64       3.5998      0.43375
     65       3.8078      0.05076
     66       3.8153      0.04546
     67       7.0812      0.00000
     68       7.1567      0.00000
     69       7.3553      0.00000
     70       7.4570      0.00000
     71       7.7552      0.00000
     72       8.4111      0.00000
     73       8.4774      0.00000
     74       8.8608      0.00000
     75       8.9309      0.00000
     76       9.2409      0.00000
     77       9.4019      0.00000
     78       9.6698      0.00000
     79       9.8577      0.00000
     80      10.0307      0.00000

[...]
    EDDIAG:  cpu time      0.1370: real time      0.1370
  RMM-DIIS:  cpu time      1.3627: real time      1.3634
    ORTHCH:  cpu time      0.0504: real time      0.0504
       DOS:  cpu time      0.0006: real time      0.0006
    CHARGE:  cpu time      0.0848: real time      0.0849
    MIXING:  cpu time      0.0100: real time      0.0100
    --------------------------------------------
      LOOP:  cpu time      1.6791: real time      1.6803

 eigenvalue-minimisations  :  6130
 total energy-change (2. order) :-0.5418689E+02  (-0.3273735E+01)
 number of electron     114.0000006 magnetization      -7.8540852
 augmentation part        7.3841141 magnetization      -6.9610957

 Broyden mixing:
  rms(total) = 0.70254E+01    rms(broyden)= 0.70253E+01
  rms(prec ) = 0.15127E+02
  weight for this iteration     100.00

 eigenvalues of (default mixing * dielectric matrix)
  average eigenvalue GAMMA=   0.6952
  2.6225  2.3528  1.7198  1.7198  1.6489  1.3337  1.3337  0.8987  0.8987  0.4456
  0.4456  0.9040  0.9040  0.1124  0.1124  0.3439  0.3439  0.0053  0.0476  0.0476
  0.0351  0.1092  0.1092  0.6217  0.6217  0.3470  0.3470  0.2804  0.2992  0.8266
  0.6114  0.6114  0.7531  0.6773  0.6773  0.4347  0.5287  0.5287  0.6391  0.6023
  0.6023

 Free energy of the ion-electron system (eV)
  ---------------------------------------------------
  alpha Z        PSCENC =       549.69015155
  Ewald energy   TEWEN  =     -7530.33230439
  -Hartree energ DENC   =     -2290.79329283
  -exchange      EXHF   =         0.00000000
  -V(xc)+E(xc)   XCENC  =       233.42312074
  PAW double counting   =     10324.63981709   -10454.93841276
  entropy T*S    EENTRO =        -0.10504164
  eigenvalues    EBANDS =      -709.58485959
  atomic energy  EATOM  =      9743.60574178
  Solvation  Ediel_sol  =         0.00000000
  ---------------------------------------------------
  free energy    TOTEN  =      -134.39508005 eV

  energy without entropy =     -134.29003841  energy(sigma->0) =     -134.34255923


--------------------------------------------------------------------------------------------------------




--------------------------------------- Iteration      4(  88)  ---------------------------------------


    POTLOK:  cpu time      0.0095: real time      0.0100
    SETDIJ:  cpu time      0.0242: real time      0.0242
    EDDIAG:  cpu time      0.1372: real time      0.1373
  RMM-DIIS:  cpu time      1.3212: real time      1.3219
    ORTHCH:  cpu time      0.0507: real time      0.0507
       DOS:  cpu time      0.0007: real time      0.0007
    CHARGE:  cpu time      0.0863: real time      0.0863
    MIXING:  cpu time      0.0097: real time      0.0097
    --------------------------------------------
      LOOP:  cpu time      1.6394: real time      1.6407

 eigenvalue-minimisations  :  5852
 total energy-change (2. order) : 0.4075651E+02  (-0.8110940E+00)
 number of electron     114.0000004 magnetization      -8.1755106
 augmentation part       13.6267379 magnetization      -5.6481395

 Broyden mixing:
  rms(total) = 0.38821E+01    rms(broyden)= 0.38821E+01
  rms(prec ) = 0.78050E+01
  weight for this iteration     100.00

 eigenvalues of (default mixing * dielectric matrix)
  average eigenvalue GAMMA=   0.6969
  2.7566  2.2113  1.5621  1.5621  1.4376  1.4376  1.0366  1.0366  1.3033  0.4273
  0.4273  1.0601  0.9625  0.9625  0.1198  0.1198  0.4215  0.4215  0.0033  0.0441
  0.0441  0.0263  0.1232  0.1232  0.6409  0.6409  0.2557  0.3586  0.3586  0.7390
  0.6042  0.6042  0.6755  0.6755  0.3425  0.5084  0.5084  0.4391  0.4391  0.6287
  0.6287  0.5905

 Free energy of the ion-electron system (eV)
  ---------------------------------------------------
  alpha Z        PSCENC =       549.69015155
  Ewald energy   TEWEN  =     -7530.33230439
  -Hartree energ DENC   =     -2251.38908977
  -exchange      EXHF   =         0.00000000
  -V(xc)+E(xc)   XCENC  =       232.47379391
  PAW double counting   =     10269.71348623   -10371.90539031
  entropy T*S    EENTRO =        -0.28089408
  eigenvalues    EBANDS =      -735.21406126
  atomic energy  EATOM  =      9743.60574178
  Solvation  Ediel_sol  =         0.00000000
  ---------------------------------------------------
  free energy    TOTEN  =       -93.63856635 eV

  energy without entropy =      -93.35767227  energy(sigma->0) =      -93.49811931


--------------------------------------------------------------------------------------------------------




--------------------------------------- Iteration      4(  89)  ---------------------------------------


    POTLOK:  cpu time      0.0093: real time      0.0100
    SETDIJ:  cpu time      0.0237: real time      0.0237
    EDDIAG:  cpu time      0.1369: real time      0.1371
  RMM-DIIS:  cpu time      1.3495: real time      1.3502
    ORTHCH:  cpu time      0.0505: real time      0.0505
       DOS:  cpu time      0.0007: real time      0.0007
    CHARGE:  cpu time      0.0867: real time      0.0867
    MIXING:  cpu time      0.0101: real time      0.0101
    --------------------------------------------
      LOOP:  cpu time      1.6674: real time      1.6691

 eigenvalue-minimisations  :  5990
 total energy-change (2. order) : 0.3786780E+01  (-0.6901830E+00)
 number of electron     114.0000003 magnetization      -8.4513874
 augmentation part       15.1990883 magnetization      -6.5665060

 Broyden mixing:
  rms(total) = 0.35961E+01    rms(broyden)= 0.35961E+01
  rms(prec ) = 0.62611E+01
  weight for this iteration     100.00

 eigenvalues of (default mixing * dielectric matrix)
  average eigenvalue GAMMA=   0.7044
  2.7817  2.2114  1.6270  1.5178  1.4193  1.4193  1.2680  1.2680  1.1303  1.1303
  0.3808  0.3808  1.0004  1.0004  0.0867  0.0867  0.4028  0.4028  0.0055  0.0388
  0.0388  0.0458  0.0985  0.0985  0.6628  0.6628  0.2357  0.3437  0.3437  0.3629
  0.7633  0.5536  0.5536  0.4650  0.5185  0.5185  0.6419  0.6419  0.6783  0.6783
  0.6166  0.6166  0.5892

 Free energy of the ion-electron system (eV)
  ---------------------------------------------------
  alpha Z        PSCENC =       549.69015155
  Ewald energy   TEWEN  =     -7530.33230439
  -Hartree energ DENC   =     -2246.11872251
  -exchange      EXHF   =         0.00000000
  -V(xc)+E(xc)   XCENC  =       232.65335037
  PAW double counting   =     10288.93722554   -10387.49403184
  entropy T*S    EENTRO =        -0.07758595
  eigenvalues    EBANDS =      -740.71561118
  atomic energy  EATOM  =      9743.60574178
  Solvation  Ediel_sol  =         0.00000000
  ---------------------------------------------------
  free energy    TOTEN  =       -89.85178663 eV

  energy without entropy =      -89.77420068  energy(sigma->0) =      -89.81299366


--------------------------------------------------------------------------------------------------------




--------------------------------------- Iteration      4(  90)  ---------------------------------------


    POTLOK:  cpu time      0.0093: real time      0.0103
    SETDIJ:  cpu time      0.0235: real time      0.0235
    EDDIAG:  cpu time      0.1372: real time      0.1373
  RMM-DIIS:  cpu time      1.3089: real time      1.3095
    ORTHCH:  cpu time      0.0504: real time      0.0505
       DOS:  cpu time      0.0007: real time      0.0007
    CHARGE:  cpu time      0.0860: real time      0.0860
    MIXING:  cpu time      0.0100: real time      0.0100
    --------------------------------------------
      LOOP:  cpu time      1.6258: real time      1.6276

 eigenvalue-minimisations  :  5863
 total energy-change (2. order) :-0.3371203E+00  (-0.4565326E+00)
 number of electron     114.0000003 magnetization      -7.7111291
 augmentation part       14.9574311 magnetization      -5.7462863

 Broyden mixing:
  rms(total) = 0.34196E+01    rms(broyden)= 0.34196E+01
  rms(prec ) = 0.63326E+01
  weight for this iteration     100.00

 eigenvalues of (default mixing * dielectric matrix)
  average eigenvalue GAMMA=   0.7199
  2.7699  1.9082  1.9082  1.7193  1.7193  1.5010  1.5010  1.5410  0.9416  0.9416
  0.3863  0.3863  0.4111  0.4111  0.0976  0.0976  0.0056  0.0443  0.0443  0.0298
  0.1059  0.1059  0.6978  0.6978  0.9378  0.9378  0.3271  0.3271  0.3451  0.3451
  0.3695  0.7878  0.7207  0.7207  0.7236  0.5626  0.5626  0.5101  0.5101  0.6277
  0.6277  0.6382  0.5853  0.5358

 Free energy of the ion-electron system (eV)
  ---------------------------------------------------
  alpha Z        PSCENC =       549.69015155
  Ewald energy   TEWEN  =     -7530.33230439
  -Hartree energ DENC   =     -2245.08281626
  -exchange      EXHF   =         0.00000000
  -V(xc)+E(xc)   XCENC  =       233.14732503
  PAW double counting   =     10285.03908395   -10392.22076845
  entropy T*S    EENTRO =        -0.13795760
  eigenvalues    EBANDS =      -733.89736252
  atomic energy  EATOM  =      9743.60574178
  Solvation  Ediel_sol  =         0.00000000
  ---------------------------------------------------
  free energy    TOTEN  =       -90.18890692 eV

  energy without entropy =      -90.05094932  energy(sigma->0) =      -90.11992812


--------------------------------------------------------------------------------------------------------




--------------------------------------- Iteration      4(  91)  ---------------------------------------


    POTLOK:  cpu time      0.0091: real time      0.0100
    SETDIJ:  cpu time      0.0238: real time      0.0238
    EDDIAG:  cpu time      0.1369: real time      0.1370
  RMM-DIIS:  cpu time      1.3635: real time      1.3641
    ORTHCH:  cpu time      0.0505: real time      0.0506
       DOS:  cpu time      0.0007: real time      0.0007
    CHARGE:  cpu time      0.0862: real time      0.0862
    MIXING:  cpu time      0.0110: real time      0.0110
    --------------------------------------------
      LOOP:  cpu time      1.6816: real time      1.6834

 eigenvalue-minimisations  :  6090
 total energy-change (2. order) : 0.2954754E+01  (-0.3019764E+00)
 number of electron     114.0000005 magnetization     -10.0522019
 augmentation part       14.3585407 magnetization      -8.3228012

 Broyden mixing:
  rms(total) = 0.33584E+01    rms(broyden)= 0.33584E+01
  rms(prec ) = 0.68134E+01
  weight for this iteration     100.00

 eigenvalues of (default mixing * dielectric matrix)
  average eigenvalue GAMMA=   0.7092
  2.6087  1.9432  1.7011  1.7011  1.6469  1.6469  1.2317  1.2317  0.9490  0.9490
  0.2681  0.2681  0.0921  0.0921  0.6613  0.6613  0.0248  0.0248  0.0868  0.0868
  0.3129  0.3129  0.1533  0.1814  0.6199  0.6199  0.7858  0.7858  0.2911  0.4267
  0.4267  0.7183  0.7183  0.4870  0.4870  0.6411  0.6411  0.6746  0.6320  0.5780

 Free energy of the ion-electron system (eV)
  ---------------------------------------------------
  alpha Z        PSCENC =       549.69015155
  Ewald energy   TEWEN  =     -7530.33230439
  -Hartree energ DENC   =     -2242.88041302
  -exchange      EXHF   =         0.00000000
  -V(xc)+E(xc)   XCENC  =       232.99966380
  PAW double counting   =     10138.44201621   -10249.58681119
  entropy T*S    EENTRO =        -0.41086150
  eigenvalues    EBANDS =      -728.76133638
  atomic energy  EATOM  =      9743.60574178
  Solvation  Ediel_sol  =         0.00000000
  ---------------------------------------------------
  free energy    TOTEN  =       -87.23415315 eV

  energy without entropy =      -86.82329165  energy(sigma->0) =      -87.02872240


--------------------------------------------------------------------------------------------------------




--------------------------------------- Iteration      4(  92)  ---------------------------------------


    POTLOK:  cpu time      0.0095: real time      0.0098
    SETDIJ:  cpu time      0.0232: real time      0.0233
    EDDIAG:  cpu time      0.1368: real time      0.1369
  RMM-DIIS:  cpu time      1.3780: real time      1.3797
    ORTHCH:  cpu time      0.0505: real time      0.0505
       DOS:  cpu time      0.0006: real time      0.0006
    CHARGE:  cpu time      0.0848: real time      0.0848
    MIXING:  cpu time      0.0094: real time      0.0094
    --------------------------------------------
      LOOP:  cpu time      1.6928: real time      1.6950

 eigenvalue-minimisations  :  6156
 total energy-change (2. order) : 0.7560007E+01  (-0.7735524E+00)
 number of electron     114.0000003 magnetization      -9.3985683
 augmentation part       16.4044598 magnetization      -8.3825293

 Broyden mixing:
  rms(total) = 0.32811E+01    rms(broyden)= 0.32811E+01
  rms(prec ) = 0.50003E+01
  weight for this iteration     100.00

 eigenvalues of (default mixing * dielectric matrix)
  average eigenvalue GAMMA=   0.7151
  2.6462  1.9448  1.8439  1.8439  1.6253  1.5419  1.5419  0.9372  0.9372  0.2532
  0.2532  0.0852  0.0852  0.4697  0.4697  0.6810  0.6810  0.0252  0.0252  0.0890
  0.0890  0.0772  0.9384  0.1825  0.3627  0.3627  0.2831  0.8424  0.8424  0.7395
  0.7395  0.6089  0.6089  0.4632  0.4632  0.6819  0.6819  0.6071  0.6071  0.5759
  0.5822

 Free energy of the ion-electron system (eV)
  ---------------------------------------------------
  alpha Z        PSCENC =       549.69015155
  Ewald energy   TEWEN  =     -7530.33230439
  -Hartree energ DENC   =     -2221.17238902
  -exchange      EXHF   =         0.00000000
  -V(xc)+E(xc)   XCENC  =       233.84232440
  PAW double counting   =      9977.83377754   -10086.53610168
  entropy T*S    EENTRO =        -0.17889048
  eigenvalues    EBANDS =      -746.42645599
  atomic energy  EATOM  =      9743.60574178
  Solvation  Ediel_sol  =         0.00000000
  ---------------------------------------------------
  free energy    TOTEN  =       -79.67414629 eV

  energy without entropy =      -79.49525581  energy(sigma->0) =      -79.58470105


--------------------------------------------------------------------------------------------------------




--------------------------------------- Iteration      4(  93)  ---------------------------------------


    POTLOK:  cpu time      0.0096: real time      0.0102
    SETDIJ:  cpu time      0.0232: real time      0.0232
    EDDIAG:  cpu time      0.1371: real time      0.1372
  RMM-DIIS:  cpu time      1.3259: real time      1.3276
    ORTHCH:  cpu time      0.0503: real time      0.0503
       DOS:  cpu time      0.0006: real time      0.0006
    CHARGE:  cpu time      0.0838: real time      0.0839
    MIXING:  cpu time      0.0103: real time      0.0103
    --------------------------------------------
      LOOP:  cpu time      1.6408: real time      1.6433

 eigenvalue-minimisations  :  5954
 total energy-change (2. order) : 0.1384342E+01  (-0.2958539E+00)
 number of electron     114.0000005 magnetization      -9.6508806
 augmentation part       16.4693033 magnetization      -9.2054712

 Broyden mixing:
  rms(total) = 0.21347E+01    rms(broyden)= 0.21347E+01
  rms(prec ) = 0.41708E+01
  weight for this iteration     100.00

 eigenvalues of (default mixing * dielectric matrix)
  average eigenvalue GAMMA=   0.7252
  2.5454  2.5454  1.7978  1.7978  1.5758  1.5758  1.6145  0.9215  0.9215  0.3007
  0.3007  0.6175  0.6175  0.0910  0.0910  0.9361  0.9361  0.6663  0.6663  0.0194
  0.0194  0.0903  0.0903  0.1857  0.1857  0.1538  0.2490  0.4133  0.4133  0.7986
  0.6004  0.6004  0.7324  0.7324  0.4537  0.4537  0.6893  0.6169  0.6169  0.5853
  0.5853  0.6542

 Free energy of the ion-electron system (eV)
  ---------------------------------------------------
  alpha Z        PSCENC =       549.69015155
  Ewald energy   TEWEN  =     -7530.33230439
  -Hartree energ DENC   =     -2215.29999160
  -exchange      EXHF   =         0.00000000
  -V(xc)+E(xc)   XCENC  =       233.44944041
  PAW double counting   =      9933.73616746   -10042.40762521
  entropy T*S    EENTRO =        -0.34192848
  eigenvalues    EBANDS =      -750.38945627
  atomic energy  EATOM  =      9743.60574178
  Solvation  Ediel_sol  =         0.00000000
  ---------------------------------------------------
  free energy    TOTEN  =       -78.28980477 eV

  energy without entropy =      -77.94787629  energy(sigma->0) =      -78.11884053


--------------------------------------------------------------------------------------------------------




--------------------------------------- Iteration      4(  94)  ---------------------------------------


    POTLOK:  cpu time      0.0091: real time      0.0100
    SETDIJ:  cpu time      0.0233: real time      0.0233
    EDDIAG:  cpu time      0.1371: real time      0.1372
  RMM-DIIS:  cpu time      1.3403: real time      1.3412
    ORTHCH:  cpu time      0.0507: real time      0.0507
       DOS:  cpu time      0.0006: real time      0.0006
    CHARGE:  cpu time      0.0848: real time      0.0849
    MIXING:  cpu time      0.0097: real time      0.0097
    --------------------------------------------
      LOOP:  cpu time      1.6555: real time      1.6576

 eigenvalue-minimisations  :  6024
 total energy-change (2. order) : 0.1641582E+01  (-0.4094995E+00)
 number of electron     114.0000002 magnetization      -7.9716031
 augmentation part       16.8596352 magnetization      -6.9976179

 Broyden mixing:
  rms(total) = 0.35396E+01    rms(broyden)= 0.35396E+01
  rms(prec ) = 0.47226E+01
  weight for this iteration     100.00

 eigenvalues of (default mixing * dielectric matrix)
  average eigenvalue GAMMA=   0.7399
  2.5566  2.5566  2.1825  1.7267  1.7267  1.4070  1.4070  1.0669  1.0669  0.3067
  0.3067  0.6488  0.6488  0.8003  0.8003  0.9550  0.9550  0.0837  0.0837  0.0890
  0.0890  0.0269  0.0269  0.0598  0.2444  0.2444  0.2420  0.4785  0.4785  0.7416
  0.7416  0.7554  0.7554  0.3894  0.6672  0.6672  0.4827  0.4827  0.5288  0.5288
  0.6123  0.6123  0.5830

 Free energy of the ion-electron system (eV)
  ---------------------------------------------------
  alpha Z        PSCENC =       549.69015155
  Ewald energy   TEWEN  =     -7530.33230439
  -Hartree energ DENC   =     -2197.42020724
  -exchange      EXHF   =         0.00000000
  -V(xc)+E(xc)   XCENC  =       233.03684098
  PAW double counting   =     10017.45870577   -10119.39009948
  entropy T*S    EENTRO =        -0.01310093
  eigenvalues    EBANDS =      -773.28395082
  atomic energy  EATOM  =      9743.60574178
  Solvation  Ediel_sol  =         0.00000000
  ---------------------------------------------------
  free energy    TOTEN  =       -76.64822278 eV

  energy without entropy =      -76.63512185  energy(sigma->0) =      -76.64167232


--------------------------------------------------------------------------------------------------------




--------------------------------------- Iteration      4(  95)  ---------------------------------------


    POTLOK:  cpu time      0.0094: real time      0.0099
    SETDIJ:  cpu time      0.0232: real time      0.0232
 -----------------------------------------------------------------------------
|                                                                             |
|     EEEEEEE  RRRRRR   RRRRRR   OOOOOOO  RRRRRR      ###     ###     ###     |
|     E        R     R  R     R  O     O  R     R     ###     ###     ###     |
|     E        R     R  R     R  O     O  R     R     ###     ###     ###     |
|     EEEEE    RRRRRR   RRRRRR   O     O  RRRRRR       #       #       #      |
|     E        R   R    R   R    O     O  R   R                               |
|     E        R    R   R    R   O     O  R    R      ###     ###     ###     |
|     EEEEEEE  R     R  R     R  OOOOOOO  R     R     ###     ###     ###     |
|                                                                             |
|     ERROR in EDDIAG: call to ZHEEV/ZHEEVX/DSYEV/DSYEVX failed! error        |
|     code was 7200                                                           |
|                                                                             |
|       ---->  I REFUSE TO CONTINUE WITH THIS SICK JOB ... BYE!!! <----       |
|                                                                             |
 -----------------------------------------------------------------------------

