 vasp.6.3.2 27Jun22 (build Jul  3 2023 11:46:21) complex                         
 executed on    LinuxNV_CrayMPICH date 2024.04.21  00:28:53
 running on    4 total cores
 distrk:  each k-point on    4 cores,    1 groups
 distr:  one band on NCORE=   1 cores,    4 groups


--------------------------------------------------------------------------------------------------------


 INCAR:
   ADDGRID = True
   ALGO = Normal
   EDIFF = 1e-06
   ENCUT = 520.0
   IBRION = -1
   ICHARG = 0
   ISIF = 3
   ISMEAR = -5
   ISPIN = 2
   ISTART = 1
   ISYM = 0
   LAECHG = True
   LASPH = True
   LCHARG = True
   LORBIT = 11
   LREAL = Auto
   LVHAR = True
   LWAVE = False
   MAGMOM = 1*7.0 1*0.036 1*0.011 1*-0.003 1*0.036 1*0.0
   NELM = 1000
   NSW = 0
   PREC = Accurate
   SIGMA = 0.05

 POTCAR:    PAW_PBE Gd 23Dec2003                  
 POTCAR:    PAW_PBE Cu_pv 06Sep2000               
 POTCAR:    PAW_PBE Au 04Oct2007                  
 POTCAR:    PAW_PBE Gd 23Dec2003                  
   SHA256 =  58854b40b4643190560b0e2b62d2ab46bea96585f82c6231a0f4f44b8c3188dc Gd/POTCAR             
   COPYR  = (c) Copyright 23Dec2003 Georg Kresse                                                    
   COPYR  = This file is part of the software VASP. Any use, copying, and all other rights are regul
   COPYR  = If you do not have a valid VASP license, you may not use, copy or distribute this file. 
   VRHFIN =Gd : [core=Xe4]                                                                          
   LEXCH  = PE                                                                                      
   EATOM  =  3047.6032 eV,  223.9925 Ry                                                             
                                                                                                    
   TITEL  = PAW_PBE Gd 23Dec2003                                                                    
   LULTRA =        F    use ultrasoft PP ?                                                          
   IUNSCR =        1    unscreen: 0-lin 1-nonlin 2-no                                               
   RPACOR =    2.300    partial core radius                                                         
   POMASS =  157.250; ZVAL   =   18.000    mass and valenz                                          
   RCORE  =    2.800    outmost cutoff radius                                                       
   RWIGS  =    2.800; RWIGS  =    1.482    wigner-seitz radius (au A)                               
   ENMAX  =  256.472; ENMIN  =  192.354 eV                                                          
   RCLOC  =    2.316    cutoff for local pot                                                        
   LCOR   =        T    correct aug charges                                                         
   LPAW   =        T    paw PP                                                                      
   EAUG   =  537.243                                                                                
   DEXC   =    0.000                                                                                
   RMAX   =    2.857    core radius for proj-oper                                                   
   RAUG   =    1.300    factor for augmentation sphere                                              
   RDEP   =    2.921    radius for radial grids                                                     
   RDEPT  =    2.247    core radius for aug-charge                                                  
                                                                                                    
   Atomic configuration                                                                             
   14 entries                                                                                       
     n  l   j            E        occ.                                                              
     1  0  0.50    -50087.2354   2.0000                                                             
     2  0  0.50     -8269.2182   2.0000                                                             
     2  1  1.50     -7357.3672   6.0000                                                             
     3  0  0.50     -1833.2681   2.0000                                                             
     3  1  1.50     -1550.9376   6.0000                                                             
     3  2  2.50     -1178.7204  10.0000                                                             
     4  0  0.50      -369.2978   2.0000                                                             
     4  1  1.50      -276.2601   6.0000                                                             
     4  2  2.50      -147.6611  10.0000                                                             
     5  0  0.50       -49.7260   2.0000                                                             
     6  0  0.50        -4.1254   2.0000                                                             
     5  1  1.50       -27.2538   6.0000                                                             
     5  2  2.50        -2.5337   1.0000                                                             
     4  3  2.50        -8.7140   7.0000                                                             
   Description                                                                                      
     l       E           TYP  RCUT    TYP  RCUT                                                     
     0    -49.7259557     23  2.400                                                                 
     0     -4.1254107     23  2.400                                                                 
     1    -27.2537518     23  2.400                                                                 
     1     20.4087390     23  2.400                                                                 
     2     -2.5337329     23  2.500                                                                 
     2     13.6058260     23  2.500                                                                 
     3     -8.7140389     23  2.800                                                                 
     3     -9.5240782     23  2.800                                                                 
  local pseudopotential read in
  partial core-charges read in
  partial kinetic energy density read in
  atomic valenz-charges read in
  non local Contribution for L=            0  read in
    real space projection operators read in
  non local Contribution for L=            0  read in
    real space projection operators read in
  non local Contribution for L=            1  read in
    real space projection operators read in
  non local Contribution for L=            1  read in
    real space projection operators read in
  non local Contribution for L=            2  read in
    real space projection operators read in
  non local Contribution for L=            2  read in
    real space projection operators read in
  non local Contribution for L=            3  read in
    real space projection operators read in
  non local Contribution for L=            3  read in
    real space projection operators read in
    PAW grid and wavefunctions read in
 
   number of l-projection  operators is LMAX  =            8
   number of lm-projection operators is LMMAX =           32
 
 POTCAR:    PAW_PBE Cu_pv 06Sep2000               
   SHA256 =  cb7b504e2ea725fe1f25c85a9ac77d4012ce94cd394135b722c4e25ec297f1cb Cu_pv/POTCAR          
   COPYR  = (c) Copyright 06Sep2000 Georg Kresse                                                    
   COPYR  = This file is part of the software VASP. Any use, copying, and all other rights are regul
   COPYR  = If you do not have a valid VASP license, you may not use, copy or distribute this file. 
   VRHFIN =Cu: d10 p1                                                                               
   LEXCH  = PE                                                                                      
   EATOM  =  4120.1201 eV,  302.8203 Ry                                                             
                                                                                                    
   TITEL  = PAW_PBE Cu_pv 06Sep2000                                                                 
   LULTRA =        F    use ultrasoft PP ?                                                          
   IUNSCR =        1    unscreen: 0-lin 1-nonlin 2-no                                               
   RPACOR =    1.500    partial core radius                                                         
   POMASS =   63.546; ZVAL   =   17.000    mass and valenz                                          
   RCORE  =    2.000    outmost cutoff radius                                                       
   RWIGS  =    2.000; RWIGS  =    1.058    wigner-seitz radius (au A)                               
   ENMAX  =  368.648; ENMIN  =  276.486 eV                                                          
   RCLOC  =    1.304    cutoff for local pot                                                        
   LCOR   =        T    correct aug charges                                                         
   LPAW   =        T    paw PP                                                                      
   EAUG   =  758.233                                                                                
   DEXC   =    0.000                                                                                
   RMAX   =    2.046    core radius for proj-oper                                                   
   RAUG   =    1.300    factor for augmentation sphere                                              
   RDEP   =    2.025    radius for radial grids                                                     
   RDEPT  =    1.558    core radius for aug-charge                                                  
                                                                                                    
   Atomic configuration                                                                             
    8 entries                                                                                       
     n  l   j            E        occ.                                                              
     1  0  0.50     -8850.2467   2.0000                                                             
     2  0  0.50     -1062.3498   2.0000                                                             
     2  1  1.50      -916.8226   6.0000                                                             
     3  0  0.50      -114.6929   2.0000                                                             
     3  1  1.50       -72.1325   6.0000                                                             
     3  2  2.50        -5.0394  10.0000                                                             
     4  0  0.50        -4.6097   1.0000                                                             
     4  3  2.50        -1.3606   0.0000                                                             
   Description                                                                                      
     l       E           TYP  RCUT    TYP  RCUT                                                     
     1    -72.1324777     23  1.700                                                                 
     1     -1.3605826     23  1.700                                                                 
     2     -5.0393776     23  2.000                                                                 
     2     -6.3999602     23  2.000                                                                 
     0     -4.6097062     23  1.800                                                                 
     0     14.1620818     23  1.800                                                                 
  local pseudopotential read in
  partial core-charges read in
  partial kinetic energy density read in
  atomic valenz-charges read in
  non local Contribution for L=            1  read in
    real space projection operators read in
  non local Contribution for L=            1  read in
    real space projection operators read in
  non local Contribution for L=            2  read in
    real space projection operators read in
  non local Contribution for L=            2  read in
    real space projection operators read in
  non local Contribution for L=            0  read in
    real space projection operators read in
  non local Contribution for L=            0  read in
    real space projection operators read in
    PAW grid and wavefunctions read in
 
   number of l-projection  operators is LMAX  =            6
   number of lm-projection operators is LMMAX =           18
 
 POTCAR:    PAW_PBE Au 04Oct2007                  
   SHA256 =  d0044ae04e2bdce24051b198fc5c053d722a5bc6fe3c3b100514a13fc5d2db88 Au/POTCAR             
   COPYR  = (c) Copyright 04Oct2007 Georg Kresse                                                    
   COPYR  = This file is part of the software VASP. Any use, copying, and all other rights are regul
   COPYR  = If you do not have a valid VASP license, you may not use, copy or distribute this file. 
   VRHFIN =Au: s1d10                                                                                
   LEXCH  = PE                                                                                      
   EATOM  =   926.0867 eV,   68.0654 Ry                                                             
                                                                                                    
   TITEL  = PAW_PBE Au 04Oct2007                                                                    
   LULTRA =        F    use ultrasoft PP ?                                                          
   IUNSCR =        1    unscreen: 0-lin 1-nonlin 2-no                                               
   RPACOR =    2.330    partial core radius                                                         
   POMASS =  196.966; ZVAL   =   11.000    mass and valenz                                          
   RCORE  =    2.500    outmost cutoff radius                                                       
   RWIGS  =    2.840; RWIGS  =    1.503    wigner-seitz radius (au A)                               
   ENMAX  =  229.943; ENMIN  =  172.457 eV                                                          
   ICORE  =        3    local potential                                                             
   LCOR   =        T    correct aug charges                                                         
   LPAW   =        T    paw PP                                                                      
   EAUG   =  356.670                                                                                
   DEXC   =    0.000                                                                                
   RMAX   =    2.562    core radius for proj-oper                                                   
   RAUG   =    1.300    factor for augmentation sphere                                              
   RDEP   =    2.598    radius for radial grids                                                     
   RDEPT  =    2.193    core radius for aug-charge                                                  
                                                                                                    
   Atomic configuration                                                                             
   16 entries                                                                                       
     n  l   j            E        occ.                                                              
     1  0  0.50    -80748.5001   2.0000                                                             
     2  0  0.50    -14244.7466   2.0000                                                             
     2  1  1.50    -12310.9591   6.0000                                                             
     3  0  0.50     -3362.1768   2.0000                                                             
     3  1  1.50     -2801.5463   6.0000                                                             
     3  2  2.50     -2203.8206  10.0000                                                             
     4  0  0.50      -729.8168   2.0000                                                             
     4  1  1.50      -546.0527   6.0000                                                             
     4  2  2.50      -325.7302  10.0000                                                             
     4  3  3.50       -81.1472  14.0000                                                             
     5  0  0.50      -108.3201   2.0000                                                             
     5  1  1.50       -59.7479   6.0000                                                             
     5  2  2.50        -6.8783  10.0000                                                             
     6  0  0.50        -5.7602   1.0000                                                             
     6  1  1.50        -6.8029   0.0000                                                             
     5  3  2.50        -1.3606   0.0000                                                             
   Description                                                                                      
     l       E           TYP  RCUT    TYP  RCUT                                                     
     2     -6.8782861     23  2.500                                                                 
     2     -8.2388687     23  2.500                                                                 
     0     -5.7601759     23  2.500                                                                 
     0     -0.8493231     23  2.500                                                                 
     1     -2.7211652     23  2.500                                                                 
     1     27.2116520     23  2.500                                                                 
     3     -1.3605826     23  2.500                                                                 
  local pseudopotential read in
  partial core-charges read in
  partial kinetic energy density read in
  atomic valenz-charges read in
  non local Contribution for L=            2  read in
    real space projection operators read in
  non local Contribution for L=            2  read in
    real space projection operators read in
  non local Contribution for L=            0  read in
    real space projection operators read in
  non local Contribution for L=            0  read in
    real space projection operators read in
  non local Contribution for L=            1  read in
    real space projection operators read in
  non local Contribution for L=            1  read in
    real space projection operators read in
    PAW grid and wavefunctions read in
 
   number of l-projection  operators is LMAX  =            6
   number of lm-projection operators is LMMAX =           18
 
 -----------------------------------------------------------------------------
|                                                                             |
|               ----> ADVICE to this user running VASP <----                  |
|                                                                             |
|     You have a (more or less) 'small supercell' and for smaller cells       |
|     it is recommended to use the reciprocal-space projection scheme!        |
|     The real-space optimization is not efficient for small cells and it     |
|     is also less accurate ...                                               |
|     Therefore, set LREAL=.FALSE. in the INCAR file.                         |
|                                                                             |
 -----------------------------------------------------------------------------

 Optimization of the real space projectors (new method)

 maximal supplied QI-value         = 13.42
 optimisation between [QCUT,QGAM] = [ 11.67, 23.35] = [ 38.16,152.62] Ry 
 Optimized for a Real-space Cutoff    1.63 Angstroem

   l    n(q)    QCUT    max X(q) W(low)/X(q) W(high)/X(q)  e(spline) 
   0     11    11.673    10.501    0.14E-04    0.17E-05    0.21E-07
   0     11    11.673     9.148    0.21E-04    0.32E-05    0.45E-07
   1     11    11.673     4.035    0.33E-05    0.11E-04    0.84E-07
   1     11    11.673     4.388    0.11E-04    0.47E-04    0.34E-06
   2     10    11.673    20.656    0.12E-04    0.28E-04    0.54E-06
   2     10    11.673    12.651    0.11E-04    0.26E-04    0.51E-06
   3     10    11.673    61.921    0.19E-03    0.22E-03    0.23E-06
   3     10    11.673    48.328    0.20E-03    0.23E-03    0.23E-06
 Optimization of the real space projectors (new method)

 maximal supplied QI-value         = 18.90
 optimisation between [QCUT,QGAM] = [ 11.53, 23.24] = [ 37.21,151.29] Ry 
 Optimized for a Real-space Cutoff    1.36 Angstroem

   l    n(q)    QCUT    max X(q) W(low)/X(q) W(high)/X(q)  e(spline) 
   1      9    11.527     3.172    0.21E-04    0.38E-04    0.11E-06
   1      9    11.527     4.083    0.67E-04    0.79E-04    0.20E-06
   2      9    11.527    65.342    0.13E-03    0.28E-03    0.26E-06
   2      9    11.527    61.381    0.13E-03    0.29E-03    0.26E-06
   0      9    11.527    65.742    0.32E-04    0.21E-04    0.72E-07
   0      9    11.527    30.431    0.28E-04    0.19E-04    0.65E-07
 Optimization of the real space projectors (new method)

 maximal supplied QI-value         = 15.12
 optimisation between [QCUT,QGAM] = [ 11.64, 23.28] = [ 37.95,151.78] Ry 
 Optimized for a Real-space Cutoff    1.49 Angstroem

   l    n(q)    QCUT    max X(q) W(low)/X(q) W(high)/X(q)  e(spline) 
   2      9    11.641    60.898    0.24E-03    0.10E-03    0.19E-06
   2      9    11.641    58.894    0.25E-03    0.10E-03    0.19E-06
   0     10    11.641   109.617    0.73E-04    0.33E-04    0.11E-06
   0     10    11.641    75.026    0.71E-04    0.32E-04    0.11E-06
   1     10    11.641    16.344    0.27E-04    0.97E-04    0.16E-06
   1     10    11.641    10.160    0.23E-04    0.77E-04    0.13E-06
  PAW_PBE Gd 23Dec2003                  :
 energy of atom  1       EATOM=-3047.6032
 kinetic energy error for atom=    0.0019 (will be added to EATOM!!)
  PAW_PBE Cu_pv 06Sep2000               :
 energy of atom  2       EATOM=-4120.1201
 kinetic energy error for atom=    0.0541 (will be added to EATOM!!)
  PAW_PBE Au 04Oct2007                  :
 energy of atom  3       EATOM= -926.0867
 kinetic energy error for atom=    0.0034 (will be added to EATOM!!)
 
 
 POSCAR: Gd1 Cu4 Au1
  positions in direct lattice
  No initial velocities read in
 exchange correlation table for  LEXCH =        8
   RHO(1)=    0.500       N(1)  =     2000
   RHO(2)=  100.500       N(2)  =     4000

 VTST: version 4.2, (08/11/21)

 CHAIN: initializing optimizer
 
 OPT: Using VASP Dynamics algorithm
 CHAIN: Read ICHAIN             0
 
 POSCAR: Gd1 Cu4 Au1
  positions in direct lattice
  No initial velocities read in
 


--------------------------------------------------------------------------------------------------------


 ion  position               nearest neighbor table
   1  0.000  0.000  0.000-   2 2.96   3 2.96   4 2.96   5 2.96   5 2.96   5 2.96   3 2.96   4 2.96
                             2 2.96   4 2.96   3 2.96   2 2.96   6 3.09   6 3.09   6 3.09   6 3.09
   2  0.624  0.624  0.128-   3 2.51   4 2.51   5 2.51   6 2.96   6 2.96   6 2.96   1 2.96   1 2.96
                             1 2.96
   3  0.624  0.128  0.624-   2 2.51   4 2.51   5 2.51   6 2.96   6 2.96   6 2.96   1 2.96   1 2.96
                             1 2.96
   4  0.128  0.624  0.624-   2 2.51   3 2.51   5 2.51   6 2.96   6 2.96   6 2.96   1 2.96   1 2.96
                             1 2.96
   5  0.624  0.624  0.624-   2 2.51   3 2.51   4 2.51   6 2.96   6 2.96   6 2.96   1 2.96   1 2.96
                             1 2.96
   6  0.250  0.250  0.250-   3 2.96   4 2.96   2 2.96   4 2.96   2 2.96   3 2.96   5 2.96   5 2.96
                             5 2.96   4 2.96   3 2.96   2 2.96   1 3.09   1 3.09   1 3.09   1 3.09
 

IMPORTANT INFORMATION: All symmetrisations will be switched off!
NOSYMM: (Re-)initialisation of all symmetry stuff for point group C_1.


----------------------------------------------------------------------------------------

                                     Primitive cell                                     

  volume of cell :      91.0426

  direct lattice vectors                    reciprocal lattice vectors
     0.000000000  3.570576000  3.570576000    -0.140033429  0.140033429  0.140033429
     3.570576000  0.000000000  3.570576000     0.140033429 -0.140033429  0.140033429
     3.570576000  3.570576000  0.000000000     0.140033429  0.140033429 -0.140033429

  length of vectors
     5.049557005  5.049557005  5.049557005     0.242545013  0.242545013  0.242545013

  position of ions in fractional coordinates (direct lattice)
     0.000000000  0.000000000  0.000000000
     0.624045000  0.624045000  0.127866000
     0.624045000  0.127866000  0.624045000
     0.127866000  0.624045000  0.624045000
     0.624045000  0.624045000  0.624045000
     0.250000000  0.250000000  0.250000000

  ion indices of the primitive-cell ions
   primitive index   ion index
                 1           1
                 2           2
                 3           3
                 4           4
                 5           5
                 6           6

----------------------------------------------------------------------------------------

 
 
 KPOINTS: Kpoints from vasprun.xml                

Automatic generation of k-mesh.
 Grid dimensions read from file:
 generate k-points for:    6    6    6

 Generating k-lattice:

  Cartesian coordinates                     Fractional coordinates (reciprocal lattice)
    -0.023338905  0.023338905  0.023338905     0.166666667  0.000000000  0.000000000
     0.023338905 -0.023338905  0.023338905     0.000000000  0.166666667 -0.000000000
     0.023338905  0.023338905 -0.023338905    -0.000000000 -0.000000000  0.166666667

  Length of vectors
     0.040424169  0.040424169  0.040424169

  Shift w.r.t. Gamma in fractional coordinates (k-lattice)
     0.500000000  0.500000000  0.500000000

 TETIRR: Found   2592 inequivalent tetrahedra from     5184
 
 Subroutine IBZKPT returns following result:
 ===========================================
 
 Found    432 irreducible k-points:
 
 Following reciprocal coordinates:
            Coordinates               Weight
  0.083333  0.083333  0.083333      2.000000
  0.083333  0.000000  0.000000      2.000000
  0.000000  0.000000 -0.083333      2.000000
  0.000000  0.083333  0.000000      2.000000
  0.250000  0.083333  0.083333      2.000000
  0.083333  0.250000  0.083333      2.000000
  0.083333  0.083333  0.250000      2.000000
  0.083333  0.000000 -0.166667      2.000000
  0.250000  0.166667  0.166667      2.000000
  0.083333 -0.166667  0.000000      2.000000
  0.000000  0.166667 -0.083333      2.000000
  0.166667  0.000000 -0.083333      2.000000
 -0.166667 -0.166667 -0.250000      2.000000
  0.166667  0.250000  0.166667      2.000000
  0.000000  0.083333 -0.166667      2.000000
 -0.166667  0.083333  0.000000      2.000000
  0.416667  0.083333  0.083333      2.000000
  0.083333  0.416667  0.083333      2.000000
  0.083333  0.083333  0.416667      2.000000
  0.083333  0.000000 -0.333333      2.000000
  0.416667  0.333333  0.333333      2.000000
  0.083333 -0.333333  0.000000      2.000000
  0.000000  0.333333 -0.083333      2.000000
  0.333333  0.000000 -0.083333      2.000000
 -0.333333 -0.333333 -0.416667      2.000000
  0.333333  0.416667  0.333333      2.000000
  0.000000  0.083333 -0.333333      2.000000
 -0.333333  0.083333  0.000000      2.000000
 -0.416667  0.083333  0.083333      2.000000
  0.083333 -0.416667  0.083333      2.000000
  0.083333  0.083333 -0.416667      2.000000
  0.083333  0.000000  0.500000      2.000000
 -0.416667  0.500000  0.500000      2.000000
  0.083333  0.500000  0.000000      2.000000
  0.000000  0.500000 -0.083333      2.000000
  0.500000  0.000000 -0.083333      2.000000
  0.500000  0.500000  0.416667      2.000000
  0.500000 -0.416667  0.500000      2.000000
  0.000000  0.083333  0.500000      2.000000
  0.500000  0.083333  0.000000      2.000000
 -0.250000  0.083333  0.083333      2.000000
  0.083333 -0.250000  0.083333      2.000000
  0.083333  0.083333 -0.250000      2.000000
  0.083333  0.000000  0.333333      2.000000
 -0.250000 -0.333333 -0.333333      2.000000
  0.083333  0.333333  0.000000      2.000000
  0.000000 -0.333333 -0.083333      2.000000
 -0.333333  0.000000 -0.083333      2.000000
  0.333333  0.333333  0.250000      2.000000
 -0.333333 -0.250000 -0.333333      2.000000
  0.000000  0.083333  0.333333      2.000000
  0.333333  0.083333  0.000000      2.000000
 -0.083333  0.083333  0.083333      2.000000
  0.083333 -0.083333  0.083333      2.000000
  0.083333  0.083333 -0.083333      2.000000
  0.083333  0.000000  0.166667      2.000000
 -0.083333 -0.166667 -0.166667      2.000000
  0.083333  0.166667  0.000000      2.000000
  0.000000 -0.166667 -0.083333      2.000000
 -0.166667  0.000000 -0.083333      2.000000
  0.166667  0.166667  0.083333      2.000000
 -0.166667 -0.083333 -0.166667      2.000000
  0.000000  0.083333  0.166667      2.000000
  0.166667  0.083333  0.000000      2.000000
  0.250000  0.250000  0.083333      2.000000
  0.083333  0.250000  0.250000      2.000000
  0.250000  0.083333  0.250000      2.000000
  0.250000  0.166667  0.000000      2.000000
  0.250000  0.000000  0.166667      2.000000
  0.083333 -0.166667 -0.166667      2.000000
  0.166667  0.166667 -0.083333      2.000000
  0.000000 -0.166667 -0.250000      2.000000
 -0.166667  0.000000 -0.250000      2.000000
  0.166667  0.250000  0.000000      2.000000
 -0.166667  0.083333 -0.166667      2.000000
  0.000000  0.250000  0.166667      2.000000
  0.416667  0.250000  0.083333      2.000000
  0.083333  0.416667  0.250000      2.000000
  0.250000  0.083333  0.416667      2.000000
  0.250000  0.166667 -0.166667      2.000000
  0.416667  0.166667  0.333333      2.000000
  0.083333 -0.333333 -0.166667      2.000000
  0.166667  0.333333 -0.083333      2.000000
  0.166667 -0.166667 -0.250000      2.000000
 -0.333333 -0.166667 -0.416667      2.000000
  0.333333  0.416667  0.166667      2.000000
 -0.166667  0.083333 -0.333333      2.000000
 -0.166667  0.250000  0.166667      2.000000
 -0.083333  0.166667  0.333333      2.000000
 -0.250000  0.166667 -0.166667      2.000000
 -0.416667 -0.333333 -0.166667      2.000000
  0.166667  0.333333  0.416667      2.000000
 -0.333333 -0.166667  0.083333      2.000000
  0.166667 -0.166667  0.250000      2.000000
  0.333333 -0.083333  0.166667      2.000000
 -0.166667 -0.250000  0.166667      2.000000
 -0.166667 -0.416667 -0.333333      2.000000
 -0.416667 -0.083333 -0.250000      2.000000
 -0.250000 -0.416667 -0.083333      2.000000
 -0.083333 -0.250000 -0.416667      2.000000
 -0.416667  0.250000  0.083333      2.000000
  0.083333 -0.416667  0.250000      2.000000
  0.250000  0.083333 -0.416667      2.000000
  0.250000  0.166667 -0.333333      2.000000
 -0.416667  0.333333  0.500000      2.000000
  0.083333  0.500000 -0.166667      2.000000
  0.166667  0.500000 -0.083333      2.000000
  0.333333 -0.166667 -0.250000      2.000000
  0.500000 -0.333333  0.416667      2.000000
  0.500000 -0.416667  0.333333      2.000000
 -0.166667  0.083333  0.500000      2.000000
 -0.333333  0.250000  0.166667      2.000000
 -0.083333  0.166667  0.500000      2.000000
 -0.250000  0.333333 -0.166667      2.000000
  0.416667  0.500000 -0.333333      2.000000
  0.333333  0.500000 -0.416667      2.000000
  0.500000 -0.166667  0.083333      2.000000
  0.166667 -0.333333  0.250000      2.000000
  0.500000 -0.083333  0.166667      2.000000
 -0.166667 -0.250000  0.333333      2.000000
 -0.333333  0.416667  0.500000      2.000000
  0.416667 -0.083333 -0.250000      2.000000
 -0.250000  0.416667 -0.083333      2.000000
 -0.083333 -0.250000  0.416667      2.000000
 -0.250000  0.250000  0.083333      2.000000
  0.083333 -0.250000  0.250000      2.000000
  0.250000  0.083333 -0.250000      2.000000
  0.250000  0.166667  0.500000      2.000000
 -0.250000  0.500000 -0.333333      2.000000
  0.083333  0.333333 -0.166667      2.000000
  0.166667 -0.333333 -0.083333      2.000000
  0.500000 -0.166667 -0.250000      2.000000
  0.333333  0.500000  0.250000      2.000000
 -0.333333 -0.250000  0.500000      2.000000
 -0.166667  0.083333  0.333333      2.000000
  0.500000  0.250000  0.166667      2.000000
 -0.083333  0.166667 -0.333333      2.000000
 -0.250000  0.500000 -0.166667      2.000000
  0.250000  0.333333  0.500000      2.000000
  0.500000 -0.333333 -0.250000      2.000000
  0.333333 -0.166667  0.083333      2.000000
  0.166667  0.500000  0.250000      2.000000
 -0.333333 -0.083333  0.166667      2.000000
 -0.166667 -0.250000  0.500000      2.000000
  0.500000  0.250000  0.333333      2.000000
  0.250000 -0.083333 -0.250000      2.000000
 -0.250000  0.250000 -0.083333      2.000000
 -0.083333 -0.250000  0.250000      2.000000
 -0.083333  0.250000  0.083333      2.000000
  0.083333 -0.083333  0.250000      2.000000
  0.250000  0.083333 -0.083333      2.000000
  0.250000  0.166667  0.333333      2.000000
 -0.083333 -0.333333 -0.166667      2.000000
  0.083333  0.166667 -0.166667      2.000000
  0.166667 -0.166667 -0.083333      2.000000
 -0.333333 -0.166667 -0.250000      2.000000
  0.166667  0.333333  0.083333      2.000000
 -0.166667 -0.083333 -0.333333      2.000000
 -0.166667  0.083333  0.166667      2.000000
  0.333333  0.250000  0.166667      2.000000
 -0.083333  0.166667 -0.166667      2.000000
 -0.250000 -0.333333 -0.166667      2.000000
  0.083333  0.166667  0.333333      2.000000
 -0.333333 -0.166667 -0.083333      2.000000
  0.166667 -0.166667  0.083333      2.000000
  0.166667  0.333333  0.250000      2.000000
 -0.166667 -0.083333  0.166667      2.000000
 -0.166667 -0.250000 -0.333333      2.000000
  0.333333  0.083333  0.166667      2.000000
  0.083333 -0.083333 -0.250000      2.000000
 -0.250000  0.083333 -0.083333      2.000000
 -0.083333 -0.250000  0.083333      2.000000
  0.416667  0.416667  0.083333      2.000000
  0.083333  0.416667  0.416667      2.000000
  0.416667  0.083333  0.416667      2.000000
  0.416667  0.333333  0.000000      2.000000
  0.416667  0.000000  0.333333      2.000000
  0.083333 -0.333333 -0.333333      2.000000
  0.333333  0.333333 -0.083333      2.000000
  0.000000 -0.333333 -0.416667      2.000000
 -0.333333  0.000000 -0.416667      2.000000
  0.333333  0.416667  0.000000      2.000000
 -0.333333  0.083333 -0.333333      2.000000
  0.000000  0.416667  0.333333      2.000000
 -0.416667  0.416667  0.083333      2.000000
  0.083333 -0.416667  0.416667      2.000000
  0.416667  0.083333 -0.416667      2.000000
  0.416667  0.333333 -0.166667      2.000000
 -0.416667  0.166667  0.500000      2.000000
  0.083333  0.500000 -0.333333      2.000000
  0.333333  0.500000 -0.083333      2.000000
  0.166667 -0.333333 -0.416667      2.000000
  0.500000 -0.166667  0.416667      2.000000
  0.500000 -0.416667  0.166667      2.000000
 -0.333333  0.083333  0.500000      2.000000
 -0.166667  0.416667  0.333333      2.000000
 -0.083333  0.333333  0.500000      2.000000
 -0.416667  0.166667 -0.333333      2.000000
  0.416667  0.500000 -0.166667      2.000000
  0.166667  0.500000 -0.416667      2.000000
  0.500000 -0.333333  0.083333      2.000000
  0.333333 -0.166667  0.416667      2.000000
  0.500000 -0.083333  0.333333      2.000000
 -0.333333 -0.416667  0.166667      2.000000
 -0.166667  0.416667  0.500000      2.000000
  0.416667 -0.083333 -0.416667      2.000000
 -0.416667  0.416667 -0.083333      2.000000
 -0.083333 -0.416667  0.416667      2.000000
 -0.250000  0.416667  0.083333      2.000000
  0.083333 -0.250000  0.416667      2.000000
  0.416667  0.083333 -0.250000      2.000000
  0.416667  0.333333 -0.333333      2.000000
 -0.250000  0.333333 -0.333333      2.000000
  0.083333  0.333333 -0.333333      2.000000
  0.333333 -0.333333 -0.083333      2.000000
  0.333333 -0.333333 -0.416667      2.000000
  0.333333 -0.333333  0.250000      2.000000
 -0.333333 -0.250000  0.333333      2.000000
 -0.333333  0.083333  0.333333      2.000000
 -0.333333  0.416667  0.333333      2.000000
 -0.083333  0.333333 -0.333333      2.000000
 -0.416667  0.333333 -0.333333      2.000000
  0.250000  0.333333 -0.333333      2.000000
  0.333333 -0.333333 -0.250000      2.000000
  0.333333 -0.333333  0.083333      2.000000
  0.333333 -0.333333  0.416667      2.000000
 -0.333333 -0.083333  0.333333      2.000000
 -0.333333 -0.416667  0.333333      2.000000
 -0.333333  0.250000  0.333333      2.000000
  0.250000 -0.083333 -0.416667      2.000000
 -0.416667  0.250000 -0.083333      2.000000
 -0.083333 -0.416667  0.250000      2.000000
 -0.083333  0.416667  0.083333      2.000000
  0.083333 -0.083333  0.416667      2.000000
  0.416667  0.083333 -0.083333      2.000000
  0.416667  0.333333  0.500000      2.000000
 -0.083333  0.500000 -0.166667      2.000000
  0.083333  0.166667 -0.333333      2.000000
  0.333333 -0.166667 -0.083333      2.000000
  0.500000 -0.333333 -0.416667      2.000000
  0.166667  0.500000  0.083333      2.000000
 -0.166667 -0.083333  0.500000      2.000000
 -0.333333  0.083333  0.166667      2.000000
  0.500000  0.416667  0.333333      2.000000
 -0.083333  0.333333 -0.166667      2.000000
 -0.416667  0.500000 -0.333333      2.000000
  0.083333  0.166667  0.500000      2.000000
  0.500000 -0.166667 -0.083333      2.000000
  0.166667 -0.333333  0.083333      2.000000
  0.333333  0.500000  0.416667      2.000000
 -0.166667 -0.083333  0.333333      2.000000
 -0.333333 -0.416667  0.500000      2.000000
  0.500000  0.083333  0.166667      2.000000
  0.083333 -0.083333 -0.416667      2.000000
 -0.416667  0.083333 -0.083333      2.000000
 -0.083333 -0.416667  0.083333      2.000000
 -0.416667 -0.416667  0.083333      2.000000
  0.083333 -0.416667 -0.416667      2.000000
 -0.416667  0.083333 -0.416667      2.000000
 -0.416667  0.500000  0.000000      2.000000
 -0.416667  0.000000  0.500000      2.000000
  0.083333  0.500000  0.500000      2.000000
  0.500000  0.500000 -0.083333      2.000000
  0.000000  0.500000  0.416667      2.000000
  0.500000  0.000000  0.416667      2.000000
  0.500000 -0.416667  0.000000      2.000000
  0.500000  0.083333  0.500000      2.000000
  0.000000 -0.416667  0.500000      2.000000
 -0.250000 -0.416667  0.083333      2.000000
  0.083333 -0.250000 -0.416667      2.000000
 -0.416667  0.083333 -0.250000      2.000000
 -0.416667  0.500000 -0.166667      2.000000
 -0.250000  0.166667 -0.333333      2.000000
  0.083333  0.333333  0.500000      2.000000
  0.500000 -0.333333 -0.083333      2.000000
  0.166667  0.500000  0.416667      2.000000
  0.333333 -0.166667  0.250000      2.000000
 -0.333333 -0.250000  0.166667      2.000000
  0.500000  0.083333  0.333333      2.000000
 -0.166667 -0.416667  0.500000      2.000000
 -0.083333  0.500000 -0.333333      2.000000
  0.416667  0.166667  0.500000      2.000000
  0.250000  0.333333 -0.166667      2.000000
  0.166667 -0.333333 -0.250000      2.000000
  0.333333  0.500000  0.083333      2.000000
  0.500000 -0.166667 -0.416667      2.000000
 -0.333333 -0.083333  0.500000      2.000000
  0.500000  0.416667  0.166667      2.000000
 -0.166667  0.250000  0.333333      2.000000
  0.250000 -0.083333  0.416667      2.000000
  0.416667  0.250000 -0.083333      2.000000
 -0.083333  0.416667  0.250000      2.000000
 -0.250000 -0.250000  0.083333      2.000000
  0.083333 -0.250000 -0.250000      2.000000
 -0.250000  0.083333 -0.250000      2.000000
 -0.250000 -0.333333  0.000000      2.000000
 -0.250000  0.000000 -0.333333      2.000000
  0.083333  0.333333  0.333333      2.000000
 -0.333333 -0.333333 -0.083333      2.000000
  0.000000  0.333333  0.250000      2.000000
  0.333333  0.000000  0.250000      2.000000
 -0.333333 -0.250000  0.000000      2.000000
  0.333333  0.083333  0.333333      2.000000
  0.000000 -0.250000 -0.333333      2.000000
  0.250000  0.250000  0.250000      2.000000
  0.250000  0.000000  0.000000      2.000000
  0.000000  0.000000 -0.250000      2.000000
  0.000000  0.250000  0.000000      2.000000
  0.416667  0.250000  0.250000      2.000000
  0.250000  0.416667  0.250000      2.000000
  0.250000  0.250000  0.416667      2.000000
  0.250000  0.000000 -0.166667      2.000000
  0.416667  0.166667  0.166667      2.000000
  0.250000 -0.166667  0.000000      2.000000
  0.000000  0.166667 -0.250000      2.000000
  0.166667  0.000000 -0.250000      2.000000
 -0.166667 -0.166667 -0.416667      2.000000
  0.166667  0.416667  0.166667      2.000000
  0.000000  0.250000 -0.166667      2.000000
 -0.166667  0.250000  0.000000      2.000000
 -0.416667  0.250000  0.250000      2.000000
  0.250000 -0.416667  0.250000      2.000000
  0.250000  0.250000 -0.416667      2.000000
  0.250000  0.000000 -0.333333      2.000000
 -0.416667  0.333333  0.333333      2.000000
  0.250000 -0.333333  0.000000      2.000000
  0.000000  0.333333 -0.250000      2.000000
  0.333333  0.000000 -0.250000      2.000000
 -0.333333 -0.333333  0.416667      2.000000
  0.333333 -0.416667  0.333333      2.000000
  0.000000  0.250000 -0.333333      2.000000
 -0.333333  0.250000  0.000000      2.000000
 -0.250000  0.250000  0.250000      2.000000
  0.250000 -0.250000  0.250000      2.000000
  0.250000  0.250000 -0.250000      2.000000
  0.250000  0.000000  0.500000      2.000000
 -0.250000  0.500000  0.500000      2.000000
  0.250000  0.500000  0.000000      2.000000
  0.000000  0.500000 -0.250000      2.000000
  0.500000  0.000000 -0.250000      2.000000
  0.500000  0.500000  0.250000      2.000000
  0.500000 -0.250000  0.500000      2.000000
  0.000000  0.250000  0.500000      2.000000
  0.500000  0.250000  0.000000      2.000000
  0.416667  0.416667  0.250000      2.000000
  0.250000  0.416667  0.416667      2.000000
  0.416667  0.250000  0.416667      2.000000
  0.416667  0.166667  0.000000      2.000000
  0.416667  0.000000  0.166667      2.000000
  0.250000 -0.166667 -0.166667      2.000000
  0.166667  0.166667 -0.250000      2.000000
  0.000000 -0.166667 -0.416667      2.000000
 -0.166667  0.000000 -0.416667      2.000000
  0.166667  0.416667  0.000000      2.000000
 -0.166667  0.250000 -0.166667      2.000000
  0.000000  0.416667  0.166667      2.000000
 -0.416667  0.416667  0.250000      2.000000
  0.250000 -0.416667  0.416667      2.000000
  0.416667  0.250000 -0.416667      2.000000
  0.416667  0.166667 -0.166667      2.000000
 -0.416667  0.166667  0.333333      2.000000
  0.250000 -0.333333 -0.166667      2.000000
  0.166667  0.333333 -0.250000      2.000000
  0.166667 -0.166667 -0.416667      2.000000
 -0.333333 -0.166667  0.416667      2.000000
  0.333333 -0.416667  0.166667      2.000000
 -0.166667  0.250000 -0.333333      2.000000
 -0.166667  0.416667  0.166667      2.000000
 -0.250000  0.166667  0.333333      2.000000
 -0.416667  0.166667 -0.166667      2.000000
  0.416667 -0.333333 -0.166667      2.000000
  0.166667  0.333333 -0.416667      2.000000
 -0.333333 -0.166667  0.250000      2.000000
  0.166667 -0.166667  0.416667      2.000000
  0.333333 -0.250000  0.166667      2.000000
 -0.166667 -0.416667  0.166667      2.000000
 -0.166667  0.416667 -0.333333      2.000000
  0.416667 -0.250000 -0.416667      2.000000
 -0.416667  0.416667 -0.250000      2.000000
 -0.250000 -0.416667  0.416667      2.000000
 -0.250000  0.416667  0.250000      2.000000
  0.250000 -0.250000  0.416667      2.000000
  0.416667  0.250000 -0.250000      2.000000
  0.416667  0.166667 -0.333333      2.000000
 -0.250000  0.333333  0.500000      2.000000
  0.250000  0.500000 -0.166667      2.000000
  0.166667  0.500000 -0.250000      2.000000
  0.333333 -0.166667 -0.416667      2.000000
  0.500000 -0.333333  0.250000      2.000000
  0.500000 -0.250000  0.333333      2.000000
 -0.166667  0.250000  0.500000      2.000000
 -0.333333  0.416667  0.166667      2.000000
 -0.250000  0.166667  0.500000      2.000000
 -0.416667  0.333333 -0.166667      2.000000
  0.250000  0.500000 -0.333333      2.000000
  0.333333  0.500000 -0.250000      2.000000
  0.500000 -0.166667  0.250000      2.000000
  0.166667 -0.333333  0.416667      2.000000
  0.500000 -0.250000  0.166667      2.000000
 -0.166667 -0.416667  0.333333      2.000000
 -0.333333  0.250000  0.500000      2.000000
  0.250000 -0.250000 -0.416667      2.000000
 -0.416667  0.250000 -0.250000      2.000000
 -0.250000 -0.416667  0.250000      2.000000
 -0.416667 -0.416667  0.250000      2.000000
  0.250000 -0.416667 -0.416667      2.000000
 -0.416667  0.250000 -0.416667      2.000000
 -0.416667  0.333333  0.000000      2.000000
 -0.416667  0.000000  0.333333      2.000000
  0.250000 -0.333333 -0.333333      2.000000
  0.333333  0.333333 -0.250000      2.000000
  0.000000 -0.333333  0.416667      2.000000
 -0.333333  0.000000  0.416667      2.000000
  0.333333 -0.416667  0.000000      2.000000
 -0.333333  0.250000 -0.333333      2.000000
  0.000000 -0.416667  0.333333      2.000000
  0.416667  0.416667  0.416667      2.000000
  0.416667  0.000000  0.000000      2.000000
  0.000000  0.000000 -0.416667      2.000000
  0.000000  0.416667  0.000000      2.000000
 -0.416667  0.416667  0.416667      2.000000
  0.416667 -0.416667  0.416667      2.000000
  0.416667  0.416667 -0.416667      2.000000
  0.416667  0.000000 -0.166667      2.000000
 -0.416667  0.166667  0.166667      2.000000
  0.416667 -0.166667  0.000000      2.000000
  0.000000  0.166667 -0.416667      2.000000
  0.166667  0.000000 -0.416667      2.000000
 -0.166667 -0.166667  0.416667      2.000000
  0.166667 -0.416667  0.166667      2.000000
  0.000000  0.416667 -0.166667      2.000000
 -0.166667  0.416667  0.000000      2.000000
 
 Following cartesian coordinates:
            Coordinates               Weight
  0.011669  0.011669  0.011669      2.000000
 -0.011669  0.011669  0.011669      2.000000
 -0.011669 -0.011669  0.011669      2.000000
  0.011669 -0.011669  0.011669      2.000000
 -0.011669  0.035008  0.035008      2.000000
  0.035008 -0.011669  0.035008      2.000000
  0.035008  0.035008 -0.011669      2.000000
 -0.035008 -0.011669  0.035008      2.000000
  0.011669  0.035008  0.035008      2.000000
 -0.035008  0.035008 -0.011669      2.000000
  0.011669 -0.035008  0.035008      2.000000
 -0.035008  0.011669  0.035008      2.000000
 -0.035008 -0.035008 -0.011669      2.000000
  0.035008  0.011669  0.035008      2.000000
 -0.011669 -0.035008  0.035008      2.000000
  0.035008 -0.035008 -0.011669      2.000000
 -0.035008  0.058347  0.058347      2.000000
  0.058347 -0.035008  0.058347      2.000000
  0.058347  0.058347 -0.035008      2.000000
 -0.058347 -0.035008  0.058347      2.000000
  0.035008  0.058347  0.058347      2.000000
 -0.058347  0.058347 -0.035008      2.000000
  0.035008 -0.058347  0.058347      2.000000
 -0.058347  0.035008  0.058347      2.000000
 -0.058347 -0.058347 -0.035008      2.000000
  0.058347  0.035008  0.058347      2.000000
 -0.035008 -0.058347  0.058347      2.000000
  0.058347 -0.058347 -0.035008      2.000000
  0.081686 -0.058347 -0.058347      2.000000
 -0.058347  0.081686 -0.058347      2.000000
 -0.058347 -0.058347  0.081686      2.000000
  0.058347  0.081686 -0.058347      2.000000
  0.198381 -0.058347 -0.058347      2.000000
  0.058347 -0.058347  0.081686      2.000000
  0.058347 -0.081686  0.081686      2.000000
 -0.081686  0.058347  0.081686      2.000000
  0.058347  0.058347  0.081686      2.000000
 -0.058347  0.198381 -0.058347      2.000000
  0.081686  0.058347 -0.058347      2.000000
 -0.058347  0.058347  0.081686      2.000000
  0.058347 -0.035008 -0.035008      2.000000
 -0.035008  0.058347 -0.035008      2.000000
 -0.035008 -0.035008  0.058347      2.000000
  0.035008  0.058347 -0.035008      2.000000
 -0.058347 -0.035008 -0.035008      2.000000
  0.035008 -0.035008  0.058347      2.000000
 -0.058347  0.035008 -0.035008      2.000000
  0.035008 -0.058347 -0.035008      2.000000
  0.035008  0.035008  0.058347      2.000000
 -0.035008 -0.058347 -0.035008      2.000000
  0.058347  0.035008 -0.035008      2.000000
 -0.035008  0.035008  0.058347      2.000000
  0.035008 -0.011669 -0.011669      2.000000
 -0.011669  0.035008 -0.011669      2.000000
 -0.011669 -0.011669  0.035008      2.000000
  0.011669  0.035008 -0.011669      2.000000
 -0.035008 -0.011669 -0.011669      2.000000
  0.011669 -0.011669  0.035008      2.000000
 -0.035008  0.011669 -0.011669      2.000000
  0.011669 -0.035008 -0.011669      2.000000
  0.011669  0.011669  0.035008      2.000000
 -0.011669 -0.035008 -0.011669      2.000000
  0.035008  0.011669 -0.011669      2.000000
 -0.011669  0.011669  0.035008      2.000000
  0.011669  0.011669  0.058347      2.000000
  0.058347  0.011669  0.011669      2.000000
  0.011669  0.058347  0.011669      2.000000
 -0.011669  0.011669  0.058347      2.000000
 -0.011669  0.058347  0.011669      2.000000
 -0.058347  0.011669  0.011669      2.000000
 -0.011669 -0.011669  0.058347      2.000000
 -0.058347 -0.011669  0.011669      2.000000
 -0.011669 -0.058347  0.011669      2.000000
  0.011669 -0.011669  0.058347      2.000000
  0.011669 -0.058347  0.011669      2.000000
  0.058347 -0.011669  0.011669      2.000000
 -0.011669  0.035008  0.081686      2.000000
  0.081686 -0.011669  0.035008      2.000000
  0.035008  0.081686 -0.011669      2.000000
 -0.035008 -0.011669  0.081686      2.000000
  0.011669  0.081686  0.035008      2.000000
 -0.081686  0.035008 -0.011669      2.000000
  0.011669 -0.035008  0.081686      2.000000
 -0.081686  0.011669  0.035008      2.000000
 -0.035008 -0.081686 -0.011669      2.000000
  0.035008  0.011669  0.081686      2.000000
 -0.011669 -0.081686  0.035008      2.000000
  0.081686 -0.035008 -0.011669      2.000000
  0.081686  0.011669 -0.035008      2.000000
  0.035008 -0.081686  0.011669      2.000000
 -0.011669 -0.035008 -0.081686      2.000000
  0.081686  0.035008  0.011669      2.000000
  0.035008 -0.011669 -0.081686      2.000000
 -0.011669  0.081686 -0.035008      2.000000
 -0.035008  0.081686  0.011669      2.000000
  0.011669  0.035008 -0.081686      2.000000
 -0.081686 -0.011669 -0.035008      2.000000
  0.011669 -0.081686 -0.035008      2.000000
 -0.035008  0.011669 -0.081686      2.000000
 -0.081686 -0.035008  0.011669      2.000000
  0.105025 -0.081686 -0.035008      2.000000
 -0.035008  0.105025 -0.081686      2.000000
 -0.081686 -0.035008  0.105025      2.000000
 -0.058347 -0.035008  0.105025      2.000000
  0.175042 -0.035008 -0.081686      2.000000
  0.035008 -0.081686  0.105025      2.000000
  0.035008 -0.058347  0.105025      2.000000
 -0.105025  0.035008  0.058347      2.000000
 -0.058347  0.175042 -0.035008      2.000000
 -0.081686  0.175042 -0.035008      2.000000
  0.105025  0.035008 -0.081686      2.000000
  0.105025 -0.058347 -0.035008      2.000000
  0.105025  0.035008 -0.058347      2.000000
  0.058347 -0.105025  0.035008      2.000000
 -0.035008 -0.058347  0.175042      2.000000
 -0.035008 -0.081686  0.175042      2.000000
 -0.081686  0.105025  0.035008      2.000000
 -0.035008  0.105025 -0.058347      2.000000
 -0.058347  0.105025  0.035008      2.000000
  0.035008  0.058347 -0.105025      2.000000
  0.175042 -0.035008 -0.058347      2.000000
 -0.105025  0.035008  0.081686      2.000000
  0.081686 -0.105025  0.035008      2.000000
  0.035008  0.081686 -0.105025      2.000000
  0.081686 -0.058347 -0.011669      2.000000
 -0.011669  0.081686 -0.058347      2.000000
 -0.058347 -0.011669  0.081686      2.000000
  0.058347  0.081686 -0.011669      2.000000
  0.058347 -0.151703  0.081686      2.000000
  0.011669 -0.058347  0.081686      2.000000
 -0.081686  0.058347 -0.011669      2.000000
 -0.128364  0.058347  0.081686      2.000000
  0.058347  0.011669  0.081686      2.000000
  0.081686  0.058347 -0.151703      2.000000
  0.081686  0.011669 -0.058347      2.000000
 -0.011669  0.058347  0.081686      2.000000
 -0.011669 -0.081686  0.058347      2.000000
  0.081686 -0.128364  0.058347      2.000000
  0.081686  0.058347  0.011669      2.000000
 -0.151703  0.081686  0.058347      2.000000
 -0.058347  0.081686  0.011669      2.000000
  0.081686 -0.011669  0.058347      2.000000
  0.058347 -0.011669 -0.081686      2.000000
  0.058347  0.081686 -0.128364      2.000000
  0.011669  0.081686  0.058347      2.000000
 -0.081686  0.011669  0.058347      2.000000
  0.058347 -0.081686  0.011669      2.000000
  0.011669  0.058347 -0.081686      2.000000
  0.058347 -0.035008  0.011669      2.000000
  0.011669  0.058347 -0.035008      2.000000
 -0.035008  0.011669  0.058347      2.000000
  0.035008  0.058347  0.011669      2.000000
 -0.058347  0.011669 -0.035008      2.000000
 -0.011669 -0.035008  0.058347      2.000000
 -0.058347  0.035008  0.011669      2.000000
 -0.011669 -0.058347 -0.035008      2.000000
  0.035008 -0.011669  0.058347      2.000000
 -0.035008 -0.058347  0.011669      2.000000
  0.058347 -0.011669 -0.035008      2.000000
  0.011669  0.035008  0.058347      2.000000
  0.011669 -0.058347  0.035008      2.000000
 -0.035008 -0.011669 -0.058347      2.000000
  0.058347  0.035008 -0.011669      2.000000
  0.011669 -0.035008 -0.058347      2.000000
 -0.035008  0.058347 -0.011669      2.000000
  0.058347  0.011669  0.035008      2.000000
  0.035008  0.011669 -0.058347      2.000000
 -0.058347 -0.035008 -0.011669      2.000000
 -0.011669  0.058347  0.035008      2.000000
 -0.058347 -0.011669  0.035008      2.000000
  0.035008 -0.058347 -0.011669      2.000000
 -0.011669  0.035008 -0.058347      2.000000
  0.011669  0.011669  0.105025      2.000000
  0.105025  0.011669  0.011669      2.000000
  0.011669  0.105025  0.011669      2.000000
 -0.011669  0.011669  0.105025      2.000000
 -0.011669  0.105025  0.011669      2.000000
 -0.105025  0.011669  0.011669      2.000000
 -0.011669 -0.011669  0.105025      2.000000
 -0.105025 -0.011669  0.011669      2.000000
 -0.011669 -0.105025  0.011669      2.000000
  0.011669 -0.011669  0.105025      2.000000
  0.011669 -0.105025  0.011669      2.000000
  0.105025 -0.011669  0.011669      2.000000
  0.128364 -0.105025 -0.011669      2.000000
 -0.011669  0.128364 -0.105025      2.000000
 -0.105025 -0.011669  0.128364      2.000000
 -0.035008 -0.011669  0.128364      2.000000
  0.151703 -0.011669 -0.105025      2.000000
  0.011669 -0.105025  0.128364      2.000000
  0.011669 -0.035008  0.128364      2.000000
 -0.128364  0.011669  0.035008      2.000000
 -0.035008  0.151703 -0.011669      2.000000
 -0.105025  0.151703 -0.011669      2.000000
  0.128364  0.011669 -0.105025      2.000000
  0.128364 -0.035008 -0.011669      2.000000
  0.128364  0.011669 -0.035008      2.000000
  0.035008 -0.128364  0.011669      2.000000
 -0.011669 -0.035008  0.151703      2.000000
 -0.011669 -0.105025  0.151703      2.000000
 -0.105025  0.128364  0.011669      2.000000
 -0.011669  0.128364 -0.035008      2.000000
 -0.035008  0.128364  0.011669      2.000000
  0.011669  0.035008 -0.128364      2.000000
  0.151703 -0.011669 -0.035008      2.000000
 -0.128364  0.011669  0.105025      2.000000
  0.105025 -0.128364  0.011669      2.000000
  0.011669  0.105025 -0.128364      2.000000
  0.105025 -0.081686  0.011669      2.000000
  0.011669  0.105025 -0.081686      2.000000
 -0.081686  0.011669  0.105025      2.000000
 -0.058347 -0.035008  0.151703      2.000000
  0.035008 -0.128364  0.058347      2.000000
 -0.011669 -0.081686  0.105025      2.000000
 -0.105025  0.081686  0.011669      2.000000
 -0.151703  0.035008  0.058347      2.000000
 -0.058347  0.128364 -0.035008      2.000000
  0.058347  0.035008 -0.128364      2.000000
  0.105025 -0.011669 -0.081686      2.000000
  0.151703 -0.058347 -0.035008      2.000000
  0.011669 -0.105025  0.081686      2.000000
  0.058347 -0.151703  0.035008      2.000000
 -0.035008 -0.058347  0.128364      2.000000
 -0.128364  0.058347  0.035008      2.000000
 -0.081686  0.105025 -0.011669      2.000000
 -0.035008  0.151703 -0.058347      2.000000
  0.081686  0.011669 -0.105025      2.000000
  0.035008  0.058347 -0.151703      2.000000
  0.128364 -0.035008 -0.058347      2.000000
 -0.105025 -0.011669  0.081686      2.000000
  0.081686 -0.105025 -0.011669      2.000000
 -0.011669  0.081686 -0.105025      2.000000
  0.081686 -0.058347  0.035008      2.000000
  0.035008  0.081686 -0.058347      2.000000
 -0.058347  0.035008  0.081686      2.000000
  0.058347  0.081686  0.035008      2.000000
  0.058347 -0.105025  0.081686      2.000000
 -0.035008 -0.058347  0.081686      2.000000
 -0.081686  0.058347  0.035008      2.000000
 -0.175042  0.058347  0.081686      2.000000
  0.058347 -0.035008  0.081686      2.000000
  0.081686  0.058347 -0.105025      2.000000
  0.081686 -0.035008 -0.058347      2.000000
  0.035008  0.058347  0.081686      2.000000
  0.035008 -0.081686  0.058347      2.000000
  0.081686 -0.175042  0.058347      2.000000
  0.081686  0.058347 -0.035008      2.000000
 -0.105025  0.081686  0.058347      2.000000
 -0.058347  0.081686 -0.035008      2.000000
  0.081686  0.035008  0.058347      2.000000
  0.058347  0.035008 -0.081686      2.000000
  0.058347  0.081686 -0.175042      2.000000
 -0.035008  0.081686  0.058347      2.000000
 -0.081686 -0.035008  0.058347      2.000000
  0.058347 -0.081686 -0.035008      2.000000
 -0.035008  0.058347 -0.081686      2.000000
  0.011669  0.011669 -0.128364      2.000000
 -0.128364  0.011669  0.011669      2.000000
  0.011669 -0.128364  0.011669      2.000000
  0.128364 -0.128364  0.011669      2.000000
  0.128364  0.011669 -0.128364      2.000000
  0.128364  0.011669  0.011669      2.000000
 -0.011669 -0.011669  0.151703      2.000000
  0.128364 -0.011669  0.011669      2.000000
 -0.011669  0.128364  0.011669      2.000000
 -0.128364  0.128364  0.011669      2.000000
  0.011669  0.128364  0.011669      2.000000
  0.011669  0.128364 -0.128364      2.000000
 -0.011669  0.035008 -0.105025      2.000000
 -0.105025 -0.011669  0.035008      2.000000
  0.035008 -0.105025 -0.011669      2.000000
  0.105025 -0.151703  0.035008      2.000000
  0.011669 -0.105025  0.035008      2.000000
  0.105025  0.035008 -0.011669      2.000000
 -0.128364  0.105025  0.035008      2.000000
  0.105025  0.011669  0.035008      2.000000
 -0.035008  0.105025 -0.011669      2.000000
  0.035008  0.011669 -0.105025      2.000000
 -0.011669  0.105025  0.035008      2.000000
  0.035008  0.105025 -0.151703      2.000000
  0.035008 -0.128364  0.105025      2.000000
  0.035008  0.105025  0.011669      2.000000
 -0.011669 -0.035008  0.105025      2.000000
 -0.105025  0.035008  0.011669      2.000000
  0.035008 -0.011669  0.105025      2.000000
 -0.151703  0.035008  0.105025      2.000000
  0.105025  0.035008 -0.128364      2.000000
  0.011669  0.035008  0.105025      2.000000
  0.105025 -0.011669 -0.035008      2.000000
  0.011669  0.105025 -0.035008      2.000000
 -0.035008  0.011669  0.105025      2.000000
  0.105025 -0.035008  0.011669      2.000000
  0.011669  0.011669 -0.081686      2.000000
 -0.081686  0.011669  0.011669      2.000000
  0.011669 -0.081686  0.011669      2.000000
 -0.011669  0.011669 -0.081686      2.000000
 -0.011669 -0.081686  0.011669      2.000000
  0.081686  0.011669  0.011669      2.000000
 -0.011669 -0.011669 -0.081686      2.000000
  0.081686 -0.011669  0.011669      2.000000
 -0.011669  0.081686  0.011669      2.000000
  0.011669 -0.011669 -0.081686      2.000000
  0.011669  0.081686  0.011669      2.000000
 -0.081686 -0.011669  0.011669      2.000000
  0.035008  0.035008  0.035008      2.000000
 -0.035008  0.035008  0.035008      2.000000
 -0.035008 -0.035008  0.035008      2.000000
  0.035008 -0.035008  0.035008      2.000000
  0.011669  0.058347  0.058347      2.000000
  0.058347  0.011669  0.058347      2.000000
  0.058347  0.058347  0.011669      2.000000
 -0.058347  0.011669  0.058347      2.000000
 -0.011669  0.058347  0.058347      2.000000
 -0.058347  0.058347  0.011669      2.000000
 -0.011669 -0.058347  0.058347      2.000000
 -0.058347 -0.011669  0.058347      2.000000
 -0.058347 -0.058347  0.011669      2.000000
  0.058347 -0.011669  0.058347      2.000000
  0.011669 -0.058347  0.058347      2.000000
  0.058347 -0.058347  0.011669      2.000000
  0.128364 -0.058347 -0.058347      2.000000
 -0.058347  0.128364 -0.058347      2.000000
 -0.058347 -0.058347  0.128364      2.000000
 -0.081686 -0.011669  0.081686      2.000000
  0.151703 -0.058347 -0.058347      2.000000
 -0.081686  0.081686 -0.011669      2.000000
  0.011669 -0.081686  0.081686      2.000000
 -0.081686  0.011669  0.081686      2.000000
  0.058347  0.058347 -0.151703      2.000000
 -0.058347  0.151703 -0.058347      2.000000
 -0.011669 -0.081686  0.081686      2.000000
  0.081686 -0.081686 -0.011669      2.000000
  0.105025 -0.035008 -0.035008      2.000000
 -0.035008  0.105025 -0.035008      2.000000
 -0.035008 -0.035008  0.105025      2.000000
  0.035008  0.105025 -0.035008      2.000000
  0.175042 -0.035008 -0.035008      2.000000
  0.035008 -0.035008  0.105025      2.000000
  0.035008 -0.105025  0.105025      2.000000
 -0.105025  0.035008  0.105025      2.000000
  0.035008  0.035008  0.105025      2.000000
 -0.035008  0.175042 -0.035008      2.000000
  0.105025  0.035008 -0.035008      2.000000
 -0.035008  0.035008  0.105025      2.000000
  0.035008  0.035008  0.081686      2.000000
  0.081686  0.035008  0.035008      2.000000
  0.035008  0.081686  0.035008      2.000000
 -0.035008  0.035008  0.081686      2.000000
 -0.035008  0.081686  0.035008      2.000000
 -0.081686  0.035008  0.035008      2.000000
 -0.035008 -0.035008  0.081686      2.000000
 -0.081686 -0.035008  0.035008      2.000000
 -0.035008 -0.081686  0.035008      2.000000
  0.035008 -0.035008  0.081686      2.000000
  0.035008 -0.081686  0.035008      2.000000
  0.081686 -0.035008  0.035008      2.000000
  0.151703 -0.081686 -0.035008      2.000000
 -0.035008  0.151703 -0.081686      2.000000
 -0.081686 -0.035008  0.151703      2.000000
 -0.058347  0.011669  0.105025      2.000000
  0.128364 -0.035008 -0.081686      2.000000
 -0.105025  0.058347  0.011669      2.000000
 -0.011669 -0.058347  0.105025      2.000000
 -0.105025 -0.011669  0.058347      2.000000
  0.081686  0.035008 -0.128364      2.000000
 -0.081686  0.128364 -0.035008      2.000000
  0.011669 -0.105025  0.058347      2.000000
  0.105025 -0.058347  0.011669      2.000000
  0.105025 -0.011669 -0.058347      2.000000
  0.058347 -0.105025 -0.011669      2.000000
 -0.128364  0.081686  0.035008      2.000000
 -0.035008 -0.081686  0.128364      2.000000
  0.058347  0.011669 -0.105025      2.000000
  0.011669  0.105025 -0.058347      2.000000
 -0.058347  0.105025 -0.011669      2.000000
 -0.011669  0.058347 -0.105025      2.000000
  0.035008 -0.128364  0.081686      2.000000
 -0.151703  0.035008  0.081686      2.000000
  0.081686 -0.151703  0.035008      2.000000
  0.035008  0.081686 -0.151703      2.000000
  0.128364 -0.058347 -0.011669      2.000000
 -0.011669  0.128364 -0.058347      2.000000
 -0.058347 -0.011669  0.128364      2.000000
 -0.081686 -0.011669  0.128364      2.000000
  0.151703 -0.011669 -0.058347      2.000000
  0.011669 -0.058347  0.128364      2.000000
  0.011669 -0.081686  0.128364      2.000000
 -0.128364  0.011669  0.081686      2.000000
 -0.081686  0.151703 -0.011669      2.000000
 -0.058347  0.151703 -0.011669      2.000000
  0.128364  0.011669 -0.058347      2.000000
  0.128364 -0.081686 -0.011669      2.000000
  0.128364  0.011669 -0.081686      2.000000
  0.081686 -0.128364  0.011669      2.000000
 -0.011669 -0.081686  0.151703      2.000000
 -0.011669 -0.058347  0.151703      2.000000
 -0.058347  0.128364  0.011669      2.000000
 -0.011669  0.128364 -0.081686      2.000000
 -0.081686  0.128364  0.011669      2.000000
  0.011669  0.081686 -0.128364      2.000000
  0.151703 -0.011669 -0.081686      2.000000
 -0.128364  0.011669  0.058347      2.000000
  0.058347 -0.128364  0.011669      2.000000
  0.011669  0.058347 -0.128364      2.000000
  0.035008  0.035008 -0.151703      2.000000
 -0.151703  0.035008  0.035008      2.000000
  0.035008 -0.151703  0.035008      2.000000
  0.105025 -0.105025 -0.011669      2.000000
  0.105025 -0.011669 -0.105025      2.000000
 -0.128364  0.035008  0.035008      2.000000
 -0.035008 -0.035008  0.128364      2.000000
  0.011669  0.105025 -0.105025      2.000000
  0.105025  0.011669 -0.105025      2.000000
 -0.105025  0.105025 -0.011669      2.000000
  0.035008 -0.128364  0.035008      2.000000
 -0.011669  0.105025 -0.105025      2.000000
  0.058347  0.058347  0.058347      2.000000
 -0.058347  0.058347  0.058347      2.000000
 -0.058347 -0.058347  0.058347      2.000000
  0.058347 -0.058347  0.058347      2.000000
  0.175042 -0.058347 -0.058347      2.000000
 -0.058347  0.175042 -0.058347      2.000000
 -0.058347 -0.058347  0.175042      2.000000
 -0.081686  0.035008  0.081686      2.000000
  0.105025 -0.058347 -0.058347      2.000000
 -0.081686  0.081686  0.035008      2.000000
 -0.035008 -0.081686  0.081686      2.000000
 -0.081686 -0.035008  0.081686      2.000000
  0.058347  0.058347 -0.105025      2.000000
 -0.058347  0.105025 -0.058347      2.000000
  0.035008 -0.081686  0.081686      2.000000
  0.081686 -0.081686  0.035008      2.000000
 


--------------------------------------------------------------------------------------------------------




 Dimension of arrays:
   k-points           NKPTS =    432   k-points in BZ     NKDIM =    432   number of bands    NBANDS=     64
   number of dos      NEDOS =    301   number of ions     NIONS =      6
   non local maximal  LDIM  =      8   non local SUM 2l+1 LMDIM =     32
   total plane-waves  NPLWV =  64000
   max r-space proj   IRMAX =  12737   max aug-charges    IRDMAX= 344069
   dimension x,y,z NGX =    40 NGY =   40 NGZ =   40
   dimension x,y,z NGXF=    80 NGYF=   80 NGZF=   80
   support grid    NGXF=   160 NGYF=  160 NGZF=  160
   ions per type =               1   4   1
   NGX,Y,Z   is equivalent  to a cutoff of  13.17, 13.17, 13.17 a.u.
   NGXF,Y,Z  is equivalent  to a cutoff of  26.34, 26.34, 26.34 a.u.

 SYSTEM =  unknown system                          
 POSCAR =  Gd1 Cu4 Au1                             

 Startparameter for this run:
   NWRITE =      2    write-flag & timer
   PREC   = accura    normal or accurate (medium, high low for compatibility)
   ISTART =      0    job   : 0-new  1-cont  2-samecut
   ICHARG =      2    charge: 1-file 2-atom 10-const
   ISPIN  =      2    spin polarized calculation?
   LNONCOLLINEAR =      F non collinear calculations
   LSORBIT =      F    spin-orbit coupling
   INIWAV =      1    electr: 0-lowe 1-rand  2-diag
   LASPH  =      T    aspherical Exc in radial PAW
 Electronic Relaxation 1
   ENCUT  =  520.0 eV  38.22 Ry    6.18 a.u.   9.39  9.39  9.39*2*pi/ulx,y,z
   ENINI  =  520.0     initial cutoff
   ENAUG  =  758.2 eV  augmentation charge cutoff
   NELM   =   1000;   NELMIN=  2; NELMDL=  0     # of ELM steps 
   EDIFF  = 0.1E-05   stopping-criterion for ELM
   LREAL  =      T    real-space projection
   NLSPLINE    = F    spline interpolate recip. space projectors
   LCOMPAT=      F    compatible to vasp.4.4
   GGA_COMPAT  = T    GGA compatible to vasp.4.4-vasp.4.6
   LMAXPAW     = -100 max onsite density
   LMAXMIX     =    2 max onsite mixed and CHGCAR
   VOSKOWN=      0    Vosko Wilk Nusair interpolation
   ROPT   =   -0.00025  -0.00025  -0.00025
 Ionic relaxation
   EDIFFG = 0.1E-04   stopping-criterion for IOM
   NSW    =      0    number of steps for IOM
   NBLOCK =      1;   KBLOCK =      1    inner block; outer block 
   IBRION =     -1    ionic relax: 0-MD 1-quasi-New 2-CG
   NFREE  =      0    steps in history (QN), initial steepest desc. (CG)
   ISIF   =      3    stress and relaxation
   IWAVPR =     10    prediction:  0-non 1-charg 2-wave 3-comb
   ISYM   =      0    0-nonsym 1-usesym 2-fastsym
   LCORR  =      T    Harris-Foulkes like correction to forces

   POTIM  = 0.5000    time-step for ionic-motion
   TEIN   =    0.0    initial temperature
   TEBEG  =    0.0;   TEEND  =   0.0 temperature during run
   SMASS  =  -3.00    Nose mass-parameter (am)
   estimated Nose-frequenzy (Omega)   =  0.10E-29 period in steps = 0.13E+47 mass=  -0.583E-27a.u.
   SCALEE = 1.0000    scale energy and forces
   NPACO  =    256;   APACO  = 10.0  distance and # of slots for P.C.
   PSTRESS=    0.0 pullay stress

  Mass of Ions in am
   POMASS = 157.25 63.55196.97
  Ionic Valenz
   ZVAL   =  18.00 17.00 11.00
  Atomic Wigner-Seitz radii
   RWIGS  =  -1.00 -1.00 -1.00
  virtual crystal weights 
   VCA    =   1.00  1.00  1.00
   NELECT =      97.0000    total number of electrons
   NUPDOWN=      -1.0000    fix difference up-down

 DOS related values:
   EMIN   =  10.00;   EMAX   =-10.00  energy-range for DOS
   EFERMI =   0.00
   ISMEAR =    -5;   SIGMA  =   0.05  broadening in eV -4-tet -1-fermi 0-gaus

 Electronic relaxation 2 (details)
   IALGO  =     38    algorithm
   LDIAG  =      T    sub-space diagonalisation (order eigenvalues)
   LSUBROT=      F    optimize rotation matrix (better conditioning)
   TURBO    =      0    0=normal 1=particle mesh
   IRESTART =      0    0=no restart 2=restart with 2 vectors
   NREBOOT  =      0    no. of reboots
   NMIN     =      0    reboot dimension
   EREF     =   0.00    reference energy to select bands
   IMIX   =      4    mixing-type and parameters
     AMIX     =   0.40;   BMIX     =  1.00
     AMIX_MAG =   1.60;   BMIX_MAG =  1.00
     AMIN     =   0.10
     WC   =   100.;   INIMIX=   1;  MIXPRE=   1;  MAXMIX= -45

 Intra band minimization:
   WEIMIN = 0.0000     energy-eigenvalue tresh-hold
   EBREAK =  0.39E-08  absolut break condition
   DEPER  =   0.30     relativ break condition  

   TIME   =   0.40     timestep for ELM

  volume/ion in A,a.u.               =      15.17       102.40
  Fermi-wavevector in a.u.,A,eV,Ry     =   1.672055  3.159725 38.038715  2.795767
  Thomas-Fermi vector in A             =   2.757269
 
 Write flags
   LWAVE        =      F    write WAVECAR
   LDOWNSAMPLE  =      F    k-point downsampling of WAVECAR
   LCHARG       =      T    write CHGCAR
   LVTOT        =      F    write LOCPOT, total local potential
   LVHAR        =      T    write LOCPOT, Hartree potential only
   LELF         =      F    write electronic localiz. function (ELF)
   LORBIT       =     11    0 simple, 1 ext, 2 COOP (PROOUT), +10 PAW based schemes


 Dipole corrections
   LMONO  =      F    monopole corrections only (constant potential shift)
   LDIPOL =      F    correct potential (dipole corrections)
   IDIPOL =      0    1-x, 2-y, 3-z, 4-all directions 
   EPSILON=  1.0000000 bulk dielectric constant

 Exchange correlation treatment:
   GGA     =    --    GGA type
   LEXCH   =     8    internal setting for exchange type
   LIBXC   =     F    Libxc                    
   VOSKOWN =     0    Vosko Wilk Nusair interpolation
   LHFCALC =     F    Hartree Fock is set to
   LHFONE  =     F    Hartree Fock one center treatment
   AEXX    =    0.0000 exact exchange contribution

 Linear response parameters
   LEPSILON=     F    determine dielectric tensor
   LRPA    =     F    only Hartree local field effects (RPA)
   LNABLA  =     F    use nabla operator in PAW spheres
   LVEL    =     F    velocity operator in full k-point grid
   CSHIFT  =0.1000    complex shift for real part using Kramers Kronig
   OMEGAMAX=  -1.0    maximum frequency
   DEG_THRESHOLD= 0.2000000E-02 threshold for treating states as degnerate
   RTIME   =   -0.100 relaxation time in fs
  (WPLASMAI=    0.000 imaginary part of plasma frequency in eV, 0.658/RTIME)
   DFIELD  = 0.0000000 0.0000000 0.0000000 field for delta impulse in time
 
  Optional k-point grid parameters
   LKPOINTS_OPT  =     F    use optional k-point grid
   KPOINTS_OPT_MODE=     1    mode for optional k-point grid
 
 Orbital magnetization related:
   ORBITALMAG=     F  switch on orbital magnetization
   LCHIMAG   =     F  perturbation theory with respect to B field
   DQ        =  0.001000  dq finite difference perturbation B field
   LLRAUG    =     F  two centre corrections for induced B field



--------------------------------------------------------------------------------------------------------


 Static calculation
 charge density and potential will be updated during run
 spin polarized calculation
 Variant of blocked Davidson
 Davidson routine will perform the subspace rotation
 perform sub-space diagonalisation
    after iterative eigenvector-optimisation
 modified Broyden-mixing scheme, WC =      100.0
 initial mixing is a Kerker type mixing with AMIX =  0.4000 and BMIX =      1.0000
 Hartree-type preconditioning will be used
 using additional bands            15
 real space projection scheme for non local part
 use partial core corrections
 calculate Harris-corrections to forces 
   (improved forces if not selfconsistent)
 use gradient corrections 
 use of overlap-Matrix (Vanderbilt PP)
 Fermi weights with tetrahedron method with Bloechl corrections


--------------------------------------------------------------------------------------------------------


  energy-cutoff  :      520.00
  volume of cell :       91.04
      direct lattice vectors                 reciprocal lattice vectors
     0.000000000  3.570576000  3.570576000    -0.140033429  0.140033429  0.140033429
     3.570576000  0.000000000  3.570576000     0.140033429 -0.140033429  0.140033429
     3.570576000  3.570576000  0.000000000     0.140033429  0.140033429 -0.140033429

  length of vectors
     5.049557005  5.049557005  5.049557005     0.242545013  0.242545013  0.242545013


 
 k-points in units of 2pi/SCALE and weight: Kpoints from vasprun.xml                
   0.01166945  0.01166945  0.01166945       0.002
  -0.01166945  0.01166945  0.01166945       0.002
  -0.01166945 -0.01166945  0.01166945       0.002
   0.01166945 -0.01166945  0.01166945       0.002
  -0.01166945  0.03500836  0.03500836       0.002
   0.03500836 -0.01166945  0.03500836       0.002
   0.03500836  0.03500836 -0.01166945       0.002
  -0.03500836 -0.01166945  0.03500836       0.002
   0.01166945  0.03500836  0.03500836       0.002
  -0.03500836  0.03500836 -0.01166945       0.002
   0.01166945 -0.03500836  0.03500836       0.002
  -0.03500836  0.01166945  0.03500836       0.002
  -0.03500836 -0.03500836 -0.01166945       0.002
   0.03500836  0.01166945  0.03500836       0.002
  -0.01166945 -0.03500836  0.03500836       0.002
   0.03500836 -0.03500836 -0.01166945       0.002
  -0.03500836  0.05834726  0.05834726       0.002
   0.05834726 -0.03500836  0.05834726       0.002
   0.05834726  0.05834726 -0.03500836       0.002
  -0.05834726 -0.03500836  0.05834726       0.002
   0.03500836  0.05834726  0.05834726       0.002
  -0.05834726  0.05834726 -0.03500836       0.002
   0.03500836 -0.05834726  0.05834726       0.002
  -0.05834726  0.03500836  0.05834726       0.002
  -0.05834726 -0.05834726 -0.03500836       0.002
   0.05834726  0.03500836  0.05834726       0.002
  -0.03500836 -0.05834726  0.05834726       0.002
   0.05834726 -0.05834726 -0.03500836       0.002
   0.08168617 -0.05834726 -0.05834726       0.002
  -0.05834726  0.08168617 -0.05834726       0.002
  -0.05834726 -0.05834726  0.08168617       0.002
   0.05834726  0.08168617 -0.05834726       0.002
   0.19838069 -0.05834726 -0.05834726       0.002
   0.05834726 -0.05834726  0.08168617       0.002
   0.05834726 -0.08168617  0.08168617       0.002
  -0.08168617  0.05834726  0.08168617       0.002
   0.05834726  0.05834726  0.08168617       0.002
  -0.05834726  0.19838069 -0.05834726       0.002
   0.08168617  0.05834726 -0.05834726       0.002
  -0.05834726  0.05834726  0.08168617       0.002
   0.05834726 -0.03500836 -0.03500836       0.002
  -0.03500836  0.05834726 -0.03500836       0.002
  -0.03500836 -0.03500836  0.05834726       0.002
   0.03500836  0.05834726 -0.03500836       0.002
  -0.05834726 -0.03500836 -0.03500836       0.002
   0.03500836 -0.03500836  0.05834726       0.002
  -0.05834726  0.03500836 -0.03500836       0.002
   0.03500836 -0.05834726 -0.03500836       0.002
   0.03500836  0.03500836  0.05834726       0.002
  -0.03500836 -0.05834726 -0.03500836       0.002
   0.05834726  0.03500836 -0.03500836       0.002
  -0.03500836  0.03500836  0.05834726       0.002
   0.03500836 -0.01166945 -0.01166945       0.002
  -0.01166945  0.03500836 -0.01166945       0.002
  -0.01166945 -0.01166945  0.03500836       0.002
   0.01166945  0.03500836 -0.01166945       0.002
  -0.03500836 -0.01166945 -0.01166945       0.002
   0.01166945 -0.01166945  0.03500836       0.002
  -0.03500836  0.01166945 -0.01166945       0.002
   0.01166945 -0.03500836 -0.01166945       0.002
   0.01166945  0.01166945  0.03500836       0.002
  -0.01166945 -0.03500836 -0.01166945       0.002
   0.03500836  0.01166945 -0.01166945       0.002
  -0.01166945  0.01166945  0.03500836       0.002
   0.01166945  0.01166945  0.05834726       0.002
   0.05834726  0.01166945  0.01166945       0.002
   0.01166945  0.05834726  0.01166945       0.002
  -0.01166945  0.01166945  0.05834726       0.002
  -0.01166945  0.05834726  0.01166945       0.002
  -0.05834726  0.01166945  0.01166945       0.002
  -0.01166945 -0.01166945  0.05834726       0.002
  -0.05834726 -0.01166945  0.01166945       0.002
  -0.01166945 -0.05834726  0.01166945       0.002
   0.01166945 -0.01166945  0.05834726       0.002
   0.01166945 -0.05834726  0.01166945       0.002
   0.05834726 -0.01166945  0.01166945       0.002
  -0.01166945  0.03500836  0.08168617       0.002
   0.08168617 -0.01166945  0.03500836       0.002
   0.03500836  0.08168617 -0.01166945       0.002
  -0.03500836 -0.01166945  0.08168617       0.002
   0.01166945  0.08168617  0.03500836       0.002
  -0.08168617  0.03500836 -0.01166945       0.002
   0.01166945 -0.03500836  0.08168617       0.002
  -0.08168617  0.01166945  0.03500836       0.002
  -0.03500836 -0.08168617 -0.01166945       0.002
   0.03500836  0.01166945  0.08168617       0.002
  -0.01166945 -0.08168617  0.03500836       0.002
   0.08168617 -0.03500836 -0.01166945       0.002
   0.08168617  0.01166945 -0.03500836       0.002
   0.03500836 -0.08168617  0.01166945       0.002
  -0.01166945 -0.03500836 -0.08168617       0.002
   0.08168617  0.03500836  0.01166945       0.002
   0.03500836 -0.01166945 -0.08168617       0.002
  -0.01166945  0.08168617 -0.03500836       0.002
  -0.03500836  0.08168617  0.01166945       0.002
   0.01166945  0.03500836 -0.08168617       0.002
  -0.08168617 -0.01166945 -0.03500836       0.002
   0.01166945 -0.08168617 -0.03500836       0.002
  -0.03500836  0.01166945 -0.08168617       0.002
  -0.08168617 -0.03500836  0.01166945       0.002
   0.10502507 -0.08168617 -0.03500836       0.002
  -0.03500836  0.10502507 -0.08168617       0.002
  -0.08168617 -0.03500836  0.10502507       0.002
  -0.05834726 -0.03500836  0.10502507       0.002
   0.17504179 -0.03500836 -0.08168617       0.002
   0.03500836 -0.08168617  0.10502507       0.002
   0.03500836 -0.05834726  0.10502507       0.002
  -0.10502507  0.03500836  0.05834726       0.002
  -0.05834726  0.17504179 -0.03500836       0.002
  -0.08168617  0.17504179 -0.03500836       0.002
   0.10502507  0.03500836 -0.08168617       0.002
   0.10502507 -0.05834726 -0.03500836       0.002
   0.10502507  0.03500836 -0.05834726       0.002
   0.05834726 -0.10502507  0.03500836       0.002
[...]
  250        set_dd_magatom                        0.000004                            1   3
  251        set_dd_paw                            1.396308                            1   3
  252          m_sumb_d                              0.929441                          7   4
  253        strkin                                0.003837                            1   3
  254          m_sumb_d                              0.000016                          1   4
  255        strelo                                0.001157                            1   3
  256          m_sumb_d                              0.000025                          2   4
  257        strnlr                               24.284613                            1   3
  258          rspher_all                            0.087185                          9   4
  259          phaser                                7.358294                       3888   4
  260          rpro_isp                             16.732928                       3888   4
  261            fftwav_mpi                            3.864304                   124416   5
  262              fftwav                                3.704362                 124416   6
  263                fft3d                                 0.828397               124416   7
  264            rpromu_acc                            5.675627                    31104   5
  265          m_sumb_d                              0.000013                          1   4
  266        fft3d_mpi                             0.003172                           22   3
  267          fftbrc_mpi                            0.002469                         22   4
  268            fftbas_plan_mpi                       0.002458                       22   5
  269              map_forward                           0.000883                     20   6
  270                map_gather                            0.000210                   10   7
  271                m_alltoallv_z                         0.000131                   10   7
  272                map_scatter                           0.000395                   10   7
  273              map_backward                          0.000943                     24   6
  274                map_gather                            0.000229                   12   7
  275                m_alltoallv_z                         0.000130                   12   7
  276                map_scatter                           0.000410                   12   7
  277        m_sumb_d                              0.000032                            5   3
  278        forhar                                0.001292                            2   3
  279          m_sumb_d                              0.000009                          2   4
  280        strehar                               0.000867                            1   3
  281          m_sumb_d                              0.000002                          1   4
  282        chggra                                0.000768                            1   3
  283          fft3d_mpi                             0.000441                          3   4
  284            fftbrc_mpi                            0.000349                        3   5
  285              fftbas_plan_mpi                       0.000347                      3   6
  286                map_forward                           0.000168                    4   7
  287                  map_gather                            0.000049                  2   8
  288                  m_alltoallv_z                         0.000025                  2   8
  289                  map_scatter                           0.000065                  2   8
  290                map_backward                          0.000092                    2   7
  291                  map_gather                            0.000019                  1   8
  292                  m_alltoallv_z                         0.000012                  1   8
  293                  map_scatter                           0.000045                  1   8
  294          m_sumb_d                              0.000009                          2   4
  295          pothar                                0.000076                          1   4
  296            m_sumb_d                              0.000005                        1   5
  297        brmix                                 0.004669                            1   3
  298          m_sumb_d                              0.000024                          6   4
  299          brpre                                 0.000017                          2   4
  300          setg0                                 0.000518                          1   4
  301          broyd                                 0.003498                          1   4
  302            m_sumb_d                              0.000285                       51   5
  303            brget                                 0.000650                      229   5
  304            brsav                                 0.000143                       49   5
  305        m_bcast_d                             0.000016                            2   3
  306      potlok                                0.018464                              2   2
  307        fft3d_mpi                             0.012101                           36   3
  308          fftbrc_mpi                            0.010382                         36   4
  309            fftbas_plan_mpi                       0.010362                       36   5
  310              map_forward                           0.003103                     40   6
  311                map_gather                            0.001084                   24   7
  312                m_alltoallv_z                         0.000906                   24   7
  313                map_scatter                           0.000938                   24   7
  314              map_backward                          0.002523                     32   6
  315                map_gather                            0.000835                   16   7
  316                m_alltoallv_z                         0.000716                   16   7
  317                map_scatter                           0.000803                   16   7
  318              dfftw_execute                         0.003111                     30   6
  319        m_sumb_d                              0.000023                            5   3
  320        pothar                                0.000754                            2   3
  321          m_sumb_d                              0.000058                          2   4
  322        m_bcast_d                             0.001036                            4   3
  323      potlok_metagga                        0.000000                              1   2
  324      set_dd_magatom                        0.000004                              1   2
  325      set_dd_paw                            1.394717                              1   2
  326        m_sumb_d                              0.927744                            7   3
  327      augmentation_charge                   0.072006                              1   2
  328        fft3d_mpi                             0.017068                            2   3
  329          fftbrc_mpi                            0.015273                          2   4
  330            fftbas_plan_mpi                       0.015272                        2   5
  331              dfftw_execute                         0.008944                      6   6
  332              map_backward                          0.006176                      4   6
  333                map_gather                            0.001322                    2   7
  334                m_alltoallv_z                         0.003524                    2   7
  335                map_scatter                           0.001321                    2   7
  336      densta                               38.579784                              1   2
 
 Flat profile
 ============
 
             routine name                   CPU           calls
 ---------------------------------------------------------------
 eddav                                3726.076575         304
 lapack                               3620.011190     8030522
 raccmu_                              2991.289193     8030522
 m_sumb_d                             2110.193381    24378611
 redis_pw                             1400.774293    44507676
 m_alltoall_d                          800.647439    ********
 phaser                                494.340069      268272
 densta                                395.615121         305
 redis_proj                            374.129909    56367088
 eccp                                  366.039795     4202496
 fft3d                                 347.173915    47424391
 fftwav                                296.215725    31363347
 orth1                                 248.192515    24093294
 racc0mu_acc                           234.784180     8030522
 overl                                 232.438049    27920456
 w1_copy                               231.017731    48183132
 soft_charge                           201.367351         300
 hamiltmu                              188.138931     8030522
 rpromu_acc                            179.868571     5974202
 m_bcast_z                             162.554985     8085818
 setup_precond                         153.431604     4202496
 set_dd_paw                            141.780722         302
 m_bcast_d                             129.487196    16061653
 overl_mu                              125.407116     8030522
 ggemm                                 103.224254    10131770
 pw_charge                              85.635051     3264043
 kinhamil                               73.278128    16061044
 vhamil                                 71.970104    16061044
 fftext_mpi                             68.362611    16061044
 depsum                                 66.745631         300
 apply_precond                          63.649972    11858548
 newband                                62.137533     8293178
 fftwav_mpi                             40.564277    31363347
 setdij_                                17.683369         328
 augmentation_charge                    17.330774         301
 total_time                             11.905070           1
 init_acc                               11.031106           1
 rpro_isp                                9.987928        5616
 lincom                                  8.900682      263520
 dfftw_execute                           7.646368        7620
 fft3d_mpi                               6.269637    16071435
 w1_projall                              6.166215     5929274
 m_alltoallv_z                           2.467440       11595
 acc_init_cublas                         2.450836           1
 truncate_high_frequency_w1              1.646169    20263540
 map_gather                              1.188872       11595
 map_scatter                             1.138503       11595
 sphpro_fast                             1.007533           2
 acc_init_cusolver                       0.797340           1
 potlok                                  0.793510         302
 broyd                                   0.714697         300
 elmin                                   0.713568           1
 fftbas_plan_mpi                         0.492351       10391
 orthch                                  0.216790           1
 brget                                   0.179343       67161
 brmix                                   0.165599         300
 acc_cufft_makeplan                      0.142505          19
 setg0                                   0.140346         302
 proall                                  0.135190           1
 rspher_all                              0.130122          14
 choleski                                0.122927         864
 strnlr                                  0.106193           1
 map_backward                            0.056833       10986
 map_forward                             0.054338        9796
 brsav                                   0.049551       19226
 force_and_stress                        0.049096           1
 set_charge                              0.047093         300
 fornlr                                  0.037121           1
 pothar                                  0.022832         303
 fft_gq                                  0.008348         300
 fftbrc_mpi                              0.005432       10391
 brpre                                   0.005013         600
 strkin                                  0.003821           1
 stufak                                  0.001771           1
 set_dd_magatom                          0.001297         302
 forhar                                  0.001283           2
 vectorpot                               0.001244         301
 strelo                                  0.001132           1
 strehar                                 0.000865           1
 forloc                                  0.000693           1
 fewald                                  0.000340           1
 chggra                                  0.000242           1
 brgrid                                  0.000119           1
 rsp                                     0.000095           1
 fordep                                  0.000060           1
 potlok_metagga                          0.000031         301
 crpa_reader                             0.000027           1
 rcp                                     0.000017           1
 acc_cufft_makeplans                     0.000009           3
 rotate_active_occupied_orbital          0.000000           1
 redis_pw_over_bands                     0.000000           1
 ---------------------------------------------------------------
  summed up times     19898.56280303001     
 
 Accumulative profile
 ====================
 
             routine name                   CPU           calls
 ---------------------------------------------------------------
 total_time                          19898.562803           1
 elmin                               19788.704211           1
 eddav                               18506.782383         304
 hamiltmu                             3870.756858     8030522
 lapack                               3620.011190     8030522
 raccmu_                              3351.480489     8030522
 m_sumb_d                             2110.193381    24378611
 redis_pw                             1797.939767    44507676
 newband                               881.450236     8293178
 m_alltoall_d                          800.647439    ********
 redis_proj                            777.611873    56367088
 fftwav_mpi                            571.233522    31363347
 fftwav                                530.669245    31363347
 phaser                                494.340069      268272
 set_charge                            477.745596         300
 set_dd_paw                            423.846244         302
 densta                                395.615121         305
 soft_charge                           388.542123         300
 eccp                                  366.039795     4202496
 fft3d                                 347.173915    47424391
 kinhamil                              259.167335    16061044
 orth1                                 248.192515    24093294
 racc0mu_acc                           234.784180     8030522
 overl                                 232.438049    27920456
 w1_copy                               231.017731    48183132
 fftext_mpi                            185.889207    16061044
 rpromu_acc                            179.868571     5974202
 w1_projall                            178.363134     5929274
 m_bcast_z                             162.554985     8085818
 setup_precond                         153.431604     4202496
 fft3d_mpi                             132.040168    16071435
 m_bcast_d                             129.487196    16061653
 overl_mu                              125.407116     8030522
 ggemm                                 103.224254    10131770
 pw_charge                              85.635051     3264043
 vhamil                                 71.970104    16061044
 depsum                                 66.792916         300
 apply_precond                          63.649972    11858548
 force_and_stress                       37.446502           1
 setdij_                                25.431712         328
 strnlr                                 24.284613           1
 rpro_isp                               23.013474        5616
 augmentation_charge                    22.435469         301
 fftbrc_mpi                             13.050136       10391
 fftbas_plan_mpi                        13.044703       10391
 init_acc                               11.031106           1
 lincom                                  8.900682      263520
 fornlr                                  8.093018           1
 dfftw_execute                           7.646368        7620
 map_backward                            2.519340       10986
 m_alltoallv_z                           2.467440       11595
 acc_init_cublas                         2.450836           1
 map_forward                             2.386645        9796
 potlok                                  2.195024         302
 orthch                                  1.724778           1
 truncate_high_frequency_w1              1.646169    20263540
 proall                                  1.625276           1
 brmix                                   1.349540         300
 map_gather                              1.188872       11595
 map_scatter                             1.138503       11595
 sphpro_fast                             1.035365           2
 broyd                                   1.027398         300
 acc_init_cusolver                       0.797340           1
 fordep                                  0.464978           1
 fft_gq                                  0.317942         300
 brget                                   0.179343       67161
 acc_cufft_makeplans                     0.142514           3
 acc_cufft_makeplan                      0.142505          19
 setg0                                   0.140346         302
 rspher_all                              0.130122          14
 choleski                                0.122927         864
 brsav                                   0.049551       19226
 pothar                                  0.025095         303
 brpre                                   0.005013         600
 strkin                                  0.003837           1
 stufak                                  0.001771           1
 set_dd_magatom                          0.001297         302
 forhar                                  0.001292           2
 vectorpot                               0.001244         301
 strelo                                  0.001157           1
 strehar                                 0.000867           1
 chggra                                  0.000768           1
 forloc                                  0.000736           1
 fewald                                  0.000506           1
 brgrid                                  0.000119           1
 rsp                                     0.000095           1
 potlok_metagga                          0.000031         301
 crpa_reader                             0.000027           1
 rcp                                     0.000017           1
 rotate_active_occupied_orbital          0.000000           1
 redis_pw_over_bands                     0.000000           1
 ---------------------------------------------------------------
 
Profiling took  98.672730 48.710522  0.003186  0.003091 seconds
Profiling took  61.893891 seconds
