 vasp.6.3.2 27Jun22 (build Jul  3 2023 11:46:21) complex                         
 executed on    LinuxNV_CrayMPICH date 2024.04.22  00:15:44
 running on    4 total cores
 distrk:  each k-point on    4 cores,    1 groups
 distr:  one band on NCORE=   1 cores,    4 groups


--------------------------------------------------------------------------------------------------------


 INCAR:
   ALGO = Normal
   EDIFF = 1e-05
   ENCUT = 520.0
   IBRION = -1
   ISIF = 3
   ISMEAR = -5
   ISPIN = 2
   LAECHG = True
   LASPH = True
   LCHARG = True
   LORBIT = 11
   LREAL = Auto
   LVHAR = True
   LWAVE = False
   MAGMOM = 1*0.6 1*7.0 2*0.6
   NELM = 1000
   NSW = 0
   PREC = Accurate
   SIGMA = 0.05

 POTCAR:    PAW_PBE Yb_2 06Sep2000                
 POTCAR:    PAW_PBE Gd 23Dec2003                  
 POTCAR:    PAW_PBE Ag 02Apr2005                  
 POTCAR:    PAW_PBE Yb_2 06Sep2000                
   SHA256 =  447ea688f1b29a5c5d62bbadb2b3e4a6902763696c282b59e85a911f7e119eeb Yb_2/POTCAR           
   COPYR  = (c) Copyright 06Sep2000 Georg Kresse                                                    
   COPYR  = This file is part of the software VASP. Any use, copying, and all other rights are regul
   COPYR  = If you do not have a valid VASP license, you may not use, copy or distribute this file. 
   VRHFIN =Yb : [core=Xe4]                                                                          
   LEXCH  = PE                                                                                      
   EATOM  =   572.3552 eV,   42.0669 Ry                                                             
                                                                                                    
   TITEL  = PAW_PBE Yb_2 06Sep2000                                                                  
   LULTRA =        F    use ultrasoft PP ?                                                          
   IUNSCR =        1    unscreen: 0-lin 1-nonlin 2-no                                               
   RPACOR =    2.400    partial core radius                                                         
   POMASS =  173.040; ZVAL   =    8.000    mass and valenz                                          
   RCORE  =    3.100    outmost cutoff radius                                                       
   RWIGS  =    3.300; RWIGS  =    1.746    wigner-seitz radius (au A)                               
   ENMAX  =  112.578; ENMIN  =   84.433 eV                                                          
   RCLOC  =    2.410    cutoff for local pot                                                        
   LCOR   =        T    correct aug charges                                                         
   LPAW   =        T    paw PP                                                                      
   EAUG   =  301.012                                                                                
   DEXC   =    0.000                                                                                
   RMAX   =    3.170    core radius for proj-oper                                                   
   RAUG   =    1.300    factor for augmentation sphere                                              
   RDEP   =    3.215    radius for radial grids                                                     
   RDEPT  =    2.473    core radius for aug-charge                                                  
                                                                                                    
   Atomic configuration                                                                             
   14 entries                                                                                       
     n  l   j            E        occ.                                                              
     1  0  0.50    -61220.9726   2.0000                                                             
     2  0  0.50    -10371.0425   2.0000                                                             
     2  1  1.50     -9138.3712   6.0000                                                             
     3  0  0.50     -2337.6588   2.0000                                                             
     3  1  1.50     -1966.2680   6.0000                                                             
     3  2  2.50     -1514.8100  10.0000                                                             
     4  0  0.50      -459.9070   2.0000                                                             
     4  1  1.50      -338.0537   6.0000                                                             
     4  2  2.50      -177.8445  10.0000                                                             
     4  3  2.50        -3.0334  14.0000                                                             
     5  0  0.50       -54.9037   2.0000                                                             
     6  0  0.50        -3.9192   2.0000                                                             
     5  1  1.50       -27.4093   6.0000                                                             
     5  2  2.50        -2.0436   0.0000                                                             
   Description                                                                                      
     l       E           TYP  RCUT    TYP  RCUT                                                     
     0     -3.9192173     23  3.100                                                                 
     0     13.6058260     23  3.100                                                                 
     1    -27.4092538     23  3.100                                                                 
     1    -28.7698364     23  3.100                                                                 
     2     -2.0435951     23  3.100                                                                 
     2      2.2720029     23  3.100                                                                 
  local pseudopotential read in
  partial core-charges read in
  partial kinetic energy density read in
  atomic valenz-charges read in
  non local Contribution for L=            0  read in
    real space projection operators read in
  non local Contribution for L=            0  read in
    real space projection operators read in
  non local Contribution for L=            1  read in
    real space projection operators read in
  non local Contribution for L=            1  read in
    real space projection operators read in
  non local Contribution for L=            2  read in
    real space projection operators read in
  non local Contribution for L=            2  read in
    real space projection operators read in
    PAW grid and wavefunctions read in
 
   number of l-projection  operators is LMAX  =            6
   number of lm-projection operators is LMMAX =           18
 
 POTCAR:    PAW_PBE Gd 23Dec2003                  
   SHA256 =  58854b40b4643190560b0e2b62d2ab46bea96585f82c6231a0f4f44b8c3188dc Gd/POTCAR             
   COPYR  = (c) Copyright 23Dec2003 Georg Kresse                                                    
   COPYR  = This file is part of the software VASP. Any use, copying, and all other rights are regul
   COPYR  = If you do not have a valid VASP license, you may not use, copy or distribute this file. 
   VRHFIN =Gd : [core=Xe4]                                                                          
   LEXCH  = PE                                                                                      
   EATOM  =  3047.6032 eV,  223.9925 Ry                                                             
                                                                                                    
   TITEL  = PAW_PBE Gd 23Dec2003                                                                    
   LULTRA =        F    use ultrasoft PP ?                                                          
   IUNSCR =        1    unscreen: 0-lin 1-nonlin 2-no                                               
   RPACOR =    2.300    partial core radius                                                         
   POMASS =  157.250; ZVAL   =   18.000    mass and valenz                                          
   RCORE  =    2.800    outmost cutoff radius                                                       
   RWIGS  =    2.800; RWIGS  =    1.482    wigner-seitz radius (au A)                               
   ENMAX  =  256.472; ENMIN  =  192.354 eV                                                          
   RCLOC  =    2.316    cutoff for local pot                                                        
   LCOR   =        T    correct aug charges                                                         
   LPAW   =        T    paw PP                                                                      
   EAUG   =  537.243                                                                                
   DEXC   =    0.000                                                                                
   RMAX   =    2.857    core radius for proj-oper                                                   
   RAUG   =    1.300    factor for augmentation sphere                                              
   RDEP   =    2.921    radius for radial grids                                                     
   RDEPT  =    2.247    core radius for aug-charge                                                  
                                                                                                    
   Atomic configuration                                                                             
   14 entries                                                                                       
     n  l   j            E        occ.                                                              
     1  0  0.50    -50087.2354   2.0000                                                             
     2  0  0.50     -8269.2182   2.0000                                                             
     2  1  1.50     -7357.3672   6.0000                                                             
     3  0  0.50     -1833.2681   2.0000                                                             
     3  1  1.50     -1550.9376   6.0000                                                             
     3  2  2.50     -1178.7204  10.0000                                                             
     4  0  0.50      -369.2978   2.0000                                                             
     4  1  1.50      -276.2601   6.0000                                                             
     4  2  2.50      -147.6611  10.0000                                                             
     5  0  0.50       -49.7260   2.0000                                                             
     6  0  0.50        -4.1254   2.0000                                                             
     5  1  1.50       -27.2538   6.0000                                                             
     5  2  2.50        -2.5337   1.0000                                                             
     4  3  2.50        -8.7140   7.0000                                                             
   Description                                                                                      
     l       E           TYP  RCUT    TYP  RCUT                                                     
     0    -49.7259557     23  2.400                                                                 
     0     -4.1254107     23  2.400                                                                 
     1    -27.2537518     23  2.400                                                                 
     1     20.4087390     23  2.400                                                                 
     2     -2.5337329     23  2.500                                                                 
     2     13.6058260     23  2.500                                                                 
     3     -8.7140389     23  2.800                                                                 
     3     -9.5240782     23  2.800                                                                 
  local pseudopotential read in
  partial core-charges read in
  partial kinetic energy density read in
  atomic valenz-charges read in
  non local Contribution for L=            0  read in
    real space projection operators read in
  non local Contribution for L=            0  read in
    real space projection operators read in
  non local Contribution for L=            1  read in
    real space projection operators read in
  non local Contribution for L=            1  read in
    real space projection operators read in
  non local Contribution for L=            2  read in
    real space projection operators read in
  non local Contribution for L=            2  read in
    real space projection operators read in
  non local Contribution for L=            3  read in
    real space projection operators read in
  non local Contribution for L=            3  read in
    real space projection operators read in
    PAW grid and wavefunctions read in
 
   number of l-projection  operators is LMAX  =            8
   number of lm-projection operators is LMMAX =           32
 
 POTCAR:    PAW_PBE Ag 02Apr2005                  
   SHA256 =  6550cfa3543261e132c169e1b98a529204624d72be14e2da2e0242bcb74a174d Ag/POTCAR             
   COPYR  = (c) Copyright 02Apr2005 Georg Kresse                                                    
   COPYR  = This file is part of the software VASP. Any use, copying, and all other rights are regul
   COPYR  = If you do not have a valid VASP license, you may not use, copy or distribute this file. 
   VRHFIN =Ag : s1 d10                                                                              
   LEXCH  = PE                                                                                      
   EATOM  =  1037.2675 eV,   76.2370 Ry                                                             
                                                                                                    
   TITEL  = PAW_PBE Ag 02Apr2005                                                                    
   LULTRA =        F    use ultrasoft PP ?                                                          
   IUNSCR =        1    unscreen: 0-lin 1-nonlin 2-no                                               
   RPACOR =    2.000    partial core radius                                                         
   POMASS =  107.868; ZVAL   =   11.000    mass and valenz                                          
   RCORE  =    2.500    outmost cutoff radius                                                       
   RWIGS  =    2.840; RWIGS  =    1.503    wigner-seitz radius (au A)                               
   ENMAX  =  249.844; ENMIN  =  187.383 eV                                                          
   ICORE  =        3    local potential                                                             
   LCOR   =        T    correct aug charges                                                         
   LPAW   =        T    paw PP                                                                      
   EAUG   =  412.496                                                                                
   DEXC   =    0.000                                                                                
   RMAX   =    2.560    core radius for proj-oper                                                   
   RAUG   =    1.300    factor for augmentation sphere                                              
   RDEP   =    2.576    radius for radial grids                                                     
   RDEPT  =    2.072    core radius for aug-charge                                                  
                                                                                                    
   Atomic configuration                                                                             
   12 entries                                                                                       
     n  l   j            E        occ.                                                              
     1  0  0.50    -25324.9161   2.0000                                                             
     2  0  0.50     -3728.5341   2.0000                                                             
     2  1  1.50     -3344.0404   6.0000                                                             
     3  0  0.50      -683.5581   2.0000                                                             
     3  1  1.50      -557.3225   6.0000                                                             
     3  2  2.50      -358.3853  10.0000                                                             
     4  0  0.50       -95.0341   2.0000                                                             
     4  1  1.50       -58.5511   6.0000                                                             
     4  2  2.50        -7.4440  10.0000                                                             
     5  0  0.50        -4.4045   1.0000                                                             
     5  1  0.50        -1.3606   0.0000                                                             
     4  3  2.50        -1.3606   0.0000                                                             
   Description                                                                                      
     l       E           TYP  RCUT    TYP  RCUT                                                     
     2     -7.4439781     23  2.400                                                                 
     2     -8.8045607     23  2.400                                                                 
     0     -4.4044681     23  2.400                                                                 
     0      1.9520038     23  2.400                                                                 
     1     -1.3605826     23  2.500                                                                 
     1     27.2116520     23  2.500                                                                 
     3     -4.0817478     23  2.400                                                                 
  local pseudopotential read in
  partial core-charges read in
  partial kinetic energy density read in
  atomic valenz-charges read in
  non local Contribution for L=            2  read in
    real space projection operators read in
  non local Contribution for L=            2  read in
    real space projection operators read in
  non local Contribution for L=            0  read in
    real space projection operators read in
  non local Contribution for L=            0  read in
    real space projection operators read in
  non local Contribution for L=            1  read in
    real space projection operators read in
  non local Contribution for L=            1  read in
    real space projection operators read in
    PAW grid and wavefunctions read in
 
   number of l-projection  operators is LMAX  =            6
   number of lm-projection operators is LMMAX =           18
 
 -----------------------------------------------------------------------------
|                                                                             |
|               ----> ADVICE to this user running VASP <----                  |
|                                                                             |
|     You have a (more or less) 'small supercell' and for smaller cells       |
|     it is recommended to use the reciprocal-space projection scheme!        |
|     The real-space optimization is not efficient for small cells and it     |
|     is also less accurate ...                                               |
|     Therefore, set LREAL=.FALSE. in the INCAR file.                         |
|                                                                             |
 -----------------------------------------------------------------------------

 Optimization of the real space projectors (new method)

 maximal supplied QI-value         = 12.09
 optimisation between [QCUT,QGAM] = [ 11.61, 23.34] = [ 37.75,152.57] Ry 
 Optimized for a Real-space Cutoff    1.89 Angstroem

   l    n(q)    QCUT    max X(q) W(low)/X(q) W(high)/X(q)  e(spline) 
   0     13    11.610    37.655    0.45E-04    0.19E-04    0.34E-06
   0     13    11.610    17.791    0.29E-04    0.15E-04    0.27E-06
   1     13    11.610    36.143    0.15E-04    0.51E-06    0.99E-06
   1     13    11.610    36.445    0.16E-04    0.54E-06    0.10E-05
   2     12    11.610    14.662    0.21E-03    0.42E-03    0.57E-05
   2     12    11.610    15.811    0.17E-03    0.35E-03    0.47E-05
 Optimization of the real space projectors (new method)

 maximal supplied QI-value         = 13.42
 optimisation between [QCUT,QGAM] = [ 11.67, 23.35] = [ 38.16,152.62] Ry 
 Optimized for a Real-space Cutoff    1.63 Angstroem

   l    n(q)    QCUT    max X(q) W(low)/X(q) W(high)/X(q)  e(spline) 
   0     11    11.673    10.501    0.14E-04    0.17E-05    0.21E-07
   0     11    11.673     9.148    0.21E-04    0.32E-05    0.45E-07
   1     11    11.673     4.035    0.33E-05    0.11E-04    0.84E-07
   1     11    11.673     4.388    0.11E-04    0.47E-04    0.34E-06
   2     10    11.673    20.656    0.12E-04    0.28E-04    0.54E-06
   2     10    11.673    12.651    0.11E-04    0.26E-04    0.51E-06
   3     10    11.673    61.921    0.19E-03    0.22E-03    0.23E-06
   3     10    11.673    48.328    0.20E-03    0.23E-03    0.23E-06
 Optimization of the real space projectors (new method)

 maximal supplied QI-value         = 15.12
 optimisation between [QCUT,QGAM] = [ 11.64, 23.28] = [ 37.95,151.78] Ry 
 Optimized for a Real-space Cutoff    1.45 Angstroem

   l    n(q)    QCUT    max X(q) W(low)/X(q) W(high)/X(q)  e(spline) 
   2      9    11.641    53.897    0.22E-03    0.42E-04    0.28E-06
   2      9    11.641    52.416    0.23E-03    0.44E-04    0.29E-06
   0     10    11.641   122.045    0.51E-04    0.25E-04    0.16E-06
   0     10    11.641    73.629    0.49E-04    0.24E-04    0.16E-06
   1     10    11.641    15.255    0.99E-04    0.55E-04    0.11E-06
   1     10    11.641     9.562    0.81E-04    0.47E-04    0.95E-07
  PAW_PBE Yb_2 06Sep2000                :
 energy of atom  1       EATOM= -572.3552
 kinetic energy error for atom=    0.0001 (will be added to EATOM!!)
  PAW_PBE Gd 23Dec2003                  :
 energy of atom  2       EATOM=-3047.6032
 kinetic energy error for atom=    0.0019 (will be added to EATOM!!)
  PAW_PBE Ag 02Apr2005                  :
 energy of atom  3       EATOM=-1037.2675
 kinetic energy error for atom=    0.0047 (will be added to EATOM!!)
 
 
 POSCAR: Yb1 Gd1 Ag2
  positions in direct lattice
  No initial velocities read in
 exchange correlation table for  LEXCH =        8
   RHO(1)=    0.500       N(1)  =     2000
   RHO(2)=  100.500       N(2)  =     4000

 VTST: version 4.2, (08/11/21)

 CHAIN: initializing optimizer
 
 OPT: Using VASP Dynamics algorithm
 CHAIN: Read ICHAIN             0
 
 POSCAR: Yb1 Gd1 Ag2
  positions in direct lattice
  No initial velocities read in
 


--------------------------------------------------------------------------------------------------------


 ion  position               nearest neighbor table
   1  0.000  0.000  0.000-   3 3.17   3 3.17   3 3.17   3 3.17   4 3.17   4 3.17   4 3.17   4 3.17
                             2 3.66   2 3.66   2 3.66   2 3.66   2 3.66   2 3.66
   2  0.500  0.500  0.500-   4 3.17   4 3.17   4 3.17   3 3.17   4 3.17   3 3.17   3 3.17   3 3.17
                             1 3.66   1 3.66   1 3.66   1 3.66   1 3.66   1 3.66
   3  0.750  0.750  0.750-   2 3.17   2 3.17   2 3.17   1 3.17   2 3.17   1 3.17   1 3.17   1 3.17

   4  0.250  0.250  0.250-   1 3.17   1 3.17   1 3.17   1 3.17   2 3.17   2 3.17   2 3.17   2 3.17

 
  LATTYP: Found a face centered cubic cell.
 ALAT       =     7.3234580000
  
  Lattice vectors:
  
 A1 = (   0.0000000000,   3.6617290000,   3.6617290000)
 A2 = (   3.6617290000,   0.0000000000,   3.6617290000)
 A3 = (   3.6617290000,   3.6617290000,   0.0000000000)


Analysis of symmetry for initial positions (statically):
=====================================================================
 Subroutine PRICEL returns:
 Original cell was already a primitive cell.
 

 Routine SETGRP: Setting up the symmetry group for a 
 face centered cubic supercell.


 Subroutine GETGRP returns: Found 48 space group operations
 (whereof 48 operations were pure point group operations)
 out of a pool of 48 trial point group operations.


The static configuration has the point symmetry O_h .


Analysis of symmetry for dynamics (positions and initial velocities):
=====================================================================
 Subroutine PRICEL returns:
 Original cell was already a primitive cell.
 

 Routine SETGRP: Setting up the symmetry group for a 
 face centered cubic supercell.


 Subroutine GETGRP returns: Found 48 space group operations
 (whereof 48 operations were pure point group operations)
 out of a pool of 48 trial point group operations.


The dynamic configuration has the point symmetry O_h .


Analysis of structural, dynamic, and magnetic symmetry:
=====================================================================
 Subroutine PRICEL returns:
 Original cell was already a primitive cell.
 

 Routine SETGRP: Setting up the symmetry group for a 
 face centered cubic supercell.


 Subroutine GETGRP returns: Found 48 space group operations
 (whereof 48 operations were pure point group operations)
 out of a pool of 48 trial point group operations.


The overall configuration has the point symmetry O_h .


 Subroutine INISYM returns: Found 48 space group operations
 (whereof 48 operations are pure point group operations),
 and found     1 'primitive' translations


----------------------------------------------------------------------------------------

                                     Primitive cell                                     

  volume of cell :      98.1948

  direct lattice vectors                    reciprocal lattice vectors
     0.000000000  3.661729000  3.661729000    -0.136547516  0.136547516  0.136547516
     3.661729000  0.000000000  3.661729000     0.136547516 -0.136547516  0.136547516
     3.661729000  3.661729000  0.000000000     0.136547516  0.136547516 -0.136547516

  length of vectors
     5.178466814  5.178466814  5.178466814     0.236507236  0.236507236  0.236507236

  position of ions in fractional coordinates (direct lattice)
     0.000000000  0.000000000  0.000000000
     0.500000000  0.500000000  0.500000000
     0.750000000  0.750000000  0.750000000
     0.250000000  0.250000000  0.250000000

  ion indices of the primitive-cell ions
   primitive index   ion index
                 1           1
                 2           2
                 3           3
                 4           4

----------------------------------------------------------------------------------------

 
 
 KPOINTS: Kpoints from vasprun.xml                

Automatic generation of k-mesh.
 Grid dimensions read from file:
 generate k-points for:    6    6    6

 Generating k-lattice:

  Cartesian coordinates                     Fractional coordinates (reciprocal lattice)
    -0.022757919  0.022757919  0.022757919     0.166666667 -0.000000000 -0.000000000
     0.022757919 -0.022757919  0.022757919    -0.000000000  0.166666667  0.000000000
     0.022757919  0.022757919 -0.022757919     0.000000000  0.000000000  0.166666667

  Length of vectors
     0.039417873  0.039417873  0.039417873

  Shift w.r.t. Gamma in fractional coordinates (k-lattice)
     0.500000000  0.500000000  0.500000000

 TETIRR: Found    403 inequivalent tetrahedra from     5184
 
 Subroutine IBZKPT returns following result:
 ===========================================
 
 Found     28 irreducible k-points:
 
 Following reciprocal coordinates:
            Coordinates               Weight
  0.083333  0.083333  0.083333      8.000000
  0.250000  0.083333  0.083333     24.000000
  0.416667  0.083333  0.083333     24.000000
 -0.416667  0.083333  0.083333     24.000000
 -0.250000  0.083333  0.083333     24.000000
 -0.083333  0.083333  0.083333     24.000000
  0.250000  0.250000  0.083333     24.000000
  0.416667  0.250000  0.083333     48.000000
 -0.416667  0.250000  0.083333     48.000000
 -0.250000  0.250000  0.083333     48.000000
 -0.083333  0.250000  0.083333     48.000000
  0.416667  0.416667  0.083333     24.000000
 -0.416667  0.416667  0.083333     48.000000
 -0.250000  0.416667  0.083333     48.000000
 -0.083333  0.416667  0.083333     48.000000
 -0.416667 -0.416667  0.083333     24.000000
 -0.250000 -0.416667  0.083333     48.000000
 -0.250000 -0.250000  0.083333     24.000000
  0.250000  0.250000  0.250000      8.000000
  0.416667  0.250000  0.250000     24.000000
 -0.416667  0.250000  0.250000     24.000000
 -0.250000  0.250000  0.250000     24.000000
  0.416667  0.416667  0.250000     24.000000
 -0.416667  0.416667  0.250000     48.000000
 -0.250000  0.416667  0.250000     48.000000
 -0.416667 -0.416667  0.250000     24.000000
  0.416667  0.416667  0.416667      8.000000
 -0.416667  0.416667  0.416667     24.000000
 
 Following cartesian coordinates:
            Coordinates               Weight
  0.011379  0.011379  0.011379      8.000000
 -0.011379  0.034137  0.034137     24.000000
 -0.034137  0.056895  0.056895     24.000000
  0.079653 -0.056895 -0.056895     24.000000
  0.056895 -0.034137 -0.034137     24.000000
  0.034137 -0.011379 -0.011379     24.000000
  0.011379  0.011379  0.056895     24.000000
 -0.011379  0.034137  0.079653     48.000000
  0.102411 -0.079653 -0.034137     48.000000
  0.079653 -0.056895 -0.011379     48.000000
  0.056895 -0.034137  0.011379     48.000000
  0.011379  0.011379  0.102411     24.000000
  0.125169 -0.102411 -0.011379     48.000000
  0.102411 -0.079653  0.011379     48.000000
  0.079653 -0.056895  0.034137     48.000000
  0.011379  0.011379 -0.125169     24.000000
 -0.011379  0.034137 -0.102411     48.000000
  0.011379  0.011379 -0.079653     24.000000
  0.034137  0.034137  0.034137      8.000000
  0.011379  0.056895  0.056895     24.000000
  0.125169 -0.056895 -0.056895     24.000000
  0.102411 -0.034137 -0.034137     24.000000
  0.034137  0.034137  0.079653     24.000000
  0.147926 -0.079653 -0.034137     48.000000
  0.125169 -0.056895 -0.011379     48.000000
  0.034137  0.034137 -0.147926     24.000000
  0.056895  0.056895  0.056895      8.000000
  0.170684 -0.056895 -0.056895     24.000000
 


--------------------------------------------------------------------------------------------------------




 Dimension of arrays:
   k-points           NKPTS =     28   k-points in BZ     NKDIM =     28   number of bands    NBANDS=     32
   number of dos      NEDOS =    301   number of ions     NIONS =      4
   non local maximal  LDIM  =      8   non local SUM 2l+1 LMDIM =     32
   total plane-waves  NPLWV =  64000
   max r-space proj   IRMAX =  18376   max aug-charges    IRDMAX=  51602
   dimension x,y,z NGX =    40 NGY =   40 NGZ =   40
   dimension x,y,z NGXF=    80 NGYF=   80 NGZF=   80
   support grid    NGXF=    80 NGYF=   80 NGZF=   80
   ions per type =               1   1   2
   NGX,Y,Z   is equivalent  to a cutoff of  12.84, 12.84, 12.84 a.u.
   NGXF,Y,Z  is equivalent  to a cutoff of  25.68, 25.68, 25.68 a.u.

 SYSTEM =  unknown system                          
 POSCAR =  Yb1 Gd1 Ag2                             

 Startparameter for this run:
   NWRITE =      2    write-flag & timer
   PREC   = accura    normal or accurate (medium, high low for compatibility)
   ISTART =      0    job   : 0-new  1-cont  2-samecut
   ICHARG =      2    charge: 1-file 2-atom 10-const
   ISPIN  =      2    spin polarized calculation?
   LNONCOLLINEAR =      F non collinear calculations
   LSORBIT =      F    spin-orbit coupling
   INIWAV =      1    electr: 0-lowe 1-rand  2-diag
   LASPH  =      T    aspherical Exc in radial PAW
 Electronic Relaxation 1
   ENCUT  =  520.0 eV  38.22 Ry    6.18 a.u.   9.63  9.63  9.63*2*pi/ulx,y,z
   ENINI  =  520.0     initial cutoff
   ENAUG  =  537.2 eV  augmentation charge cutoff
   NELM   =   1000;   NELMIN=  2; NELMDL= -5     # of ELM steps 
   EDIFF  = 0.1E-04   stopping-criterion for ELM
   LREAL  =      T    real-space projection
   NLSPLINE    = F    spline interpolate recip. space projectors
   LCOMPAT=      F    compatible to vasp.4.4
   GGA_COMPAT  = T    GGA compatible to vasp.4.4-vasp.4.6
   LMAXPAW     = -100 max onsite density
   LMAXMIX     =    2 max onsite mixed and CHGCAR
   VOSKOWN=      0    Vosko Wilk Nusair interpolation
   ROPT   =   -0.00025  -0.00025  -0.00025
 Ionic relaxation
   EDIFFG = 0.1E-03   stopping-criterion for IOM
   NSW    =      0    number of steps for IOM
   NBLOCK =      1;   KBLOCK =      1    inner block; outer block 
   IBRION =     -1    ionic relax: 0-MD 1-quasi-New 2-CG
   NFREE  =      0    steps in history (QN), initial steepest desc. (CG)
   ISIF   =      3    stress and relaxation
   IWAVPR =     10    prediction:  0-non 1-charg 2-wave 3-comb
   ISYM   =      2    0-nonsym 1-usesym 2-fastsym
   LCORR  =      T    Harris-Foulkes like correction to forces

   POTIM  = 0.5000    time-step for ionic-motion
   TEIN   =    0.0    initial temperature
   TEBEG  =    0.0;   TEEND  =   0.0 temperature during run
   SMASS  =  -3.00    Nose mass-parameter (am)
   estimated Nose-frequenzy (Omega)   =  0.10E-29 period in steps = 0.13E+47 mass=  -0.613E-27a.u.
   SCALEE = 1.0000    scale energy and forces
   NPACO  =    256;   APACO  = 10.0  distance and # of slots for P.C.
   PSTRESS=    0.0 pullay stress

  Mass of Ions in am
   POMASS = 173.04157.25107.87
  Ionic Valenz
   ZVAL   =   8.00 18.00 11.00
  Atomic Wigner-Seitz radii
   RWIGS  =  -1.00 -1.00 -1.00
  virtual crystal weights 
   VCA    =   1.00  1.00  1.00
   NELECT =      48.0000    total number of electrons
   NUPDOWN=      -1.0000    fix difference up-down

 DOS related values:
   EMIN   =  10.00;   EMAX   =-10.00  energy-range for DOS
   EFERMI =   0.00
   ISMEAR =    -5;   SIGMA  =   0.05  broadening in eV -4-tet -1-fermi 0-gaus

 Electronic relaxation 2 (details)
   IALGO  =     38    algorithm
   LDIAG  =      T    sub-space diagonalisation (order eigenvalues)
   LSUBROT=      F    optimize rotation matrix (better conditioning)
   TURBO    =      0    0=normal 1=particle mesh
   IRESTART =      0    0=no restart 2=restart with 2 vectors
   NREBOOT  =      0    no. of reboots
   NMIN     =      0    reboot dimension
   EREF     =   0.00    reference energy to select bands
   IMIX   =      4    mixing-type and parameters
     AMIX     =   0.40;   BMIX     =  1.00
     AMIX_MAG =   1.60;   BMIX_MAG =  1.00
     AMIN     =   0.10
     WC   =   100.;   INIMIX=   1;  MIXPRE=   1;  MAXMIX= -45

 Intra band minimization:
   WEIMIN = 0.0000     energy-eigenvalue tresh-hold
   EBREAK =  0.78E-07  absolut break condition
   DEPER  =   0.30     relativ break condition  

   TIME   =   0.40     timestep for ELM

  volume/ion in A,a.u.               =      24.55       165.66
  Fermi-wavevector in a.u.,A,eV,Ry     =   1.289612  2.437013 22.627835  1.663099
  Thomas-Fermi vector in A             =   2.421494
 
 Write flags
   LWAVE        =      F    write WAVECAR
   LDOWNSAMPLE  =      F    k-point downsampling of WAVECAR
   LCHARG       =      T    write CHGCAR
   LVTOT        =      F    write LOCPOT, total local potential
   LVHAR        =      T    write LOCPOT, Hartree potential only
   LELF         =      F    write electronic localiz. function (ELF)
   LORBIT       =     11    0 simple, 1 ext, 2 COOP (PROOUT), +10 PAW based schemes


 Dipole corrections
   LMONO  =      F    monopole corrections only (constant potential shift)
   LDIPOL =      F    correct potential (dipole corrections)
   IDIPOL =      0    1-x, 2-y, 3-z, 4-all directions 
   EPSILON=  1.0000000 bulk dielectric constant

 Exchange correlation treatment:
   GGA     =    --    GGA type
   LEXCH   =     8    internal setting for exchange type
   LIBXC   =     F    Libxc                    
   VOSKOWN =     0    Vosko Wilk Nusair interpolation
   LHFCALC =     F    Hartree Fock is set to
   LHFONE  =     F    Hartree Fock one center treatment
   AEXX    =    0.0000 exact exchange contribution

 Linear response parameters
   LEPSILON=     F    determine dielectric tensor
   LRPA    =     F    only Hartree local field effects (RPA)
   LNABLA  =     F    use nabla operator in PAW spheres
   LVEL    =     F    velocity operator in full k-point grid
   CSHIFT  =0.1000    complex shift for real part using Kramers Kronig
   OMEGAMAX=  -1.0    maximum frequency
   DEG_THRESHOLD= 0.2000000E-02 threshold for treating states as degnerate
   RTIME   =   -0.100 relaxation time in fs
  (WPLASMAI=    0.000 imaginary part of plasma frequency in eV, 0.658/RTIME)
   DFIELD  = 0.0000000 0.0000000 0.0000000 field for delta impulse in time
 
  Optional k-point grid parameters
   LKPOINTS_OPT  =     F    use optional k-point grid
   KPOINTS_OPT_MODE=     1    mode for optional k-point grid
 
 Orbital magnetization related:
   ORBITALMAG=     F  switch on orbital magnetization
   LCHIMAG   =     F  perturbation theory with respect to B field
   DQ        =  0.001000  dq finite difference perturbation B field
   LLRAUG    =     F  two centre corrections for induced B field



--------------------------------------------------------------------------------------------------------


 Static calculation
 charge density and potential will be updated during run
 spin polarized calculation
 Variant of blocked Davidson
 Davidson routine will perform the subspace rotation
 perform sub-space diagonalisation
    after iterative eigenvector-optimisation
 modified Broyden-mixing scheme, WC =      100.0
 initial mixing is a Kerker type mixing with AMIX =  0.4000 and BMIX =      1.0000
 Hartree-type preconditioning will be used
 using additional bands             8
 real space projection scheme for non local part
 use partial core corrections
 calculate Harris-corrections to forces 
   (improved forces if not selfconsistent)
 use gradient corrections 
 use of overlap-Matrix (Vanderbilt PP)
 Fermi weights with tetrahedron method with Bloechl corrections


--------------------------------------------------------------------------------------------------------


  energy-cutoff  :      520.00
  volume of cell :       98.19
      direct lattice vectors                 reciprocal lattice vectors
     0.000000000  3.661729000  3.661729000    -0.136547516  0.136547516  0.136547516
     3.661729000  0.000000000  3.661729000     0.136547516 -0.136547516  0.136547516
     3.661729000  3.661729000  0.000000000     0.136547516  0.136547516 -0.136547516

  length of vectors
     5.178466814  5.178466814  5.178466814     0.236507236  0.236507236  0.236507236


 
 k-points in units of 2pi/SCALE and weight: Kpoints from vasprun.xml                
   0.01137896  0.01137896  0.01137896       0.009
  -0.01137896  0.03413688  0.03413688       0.028
  -0.03413688  0.05689480  0.05689480       0.028
   0.07965272 -0.05689480 -0.05689480       0.028
   0.05689480 -0.03413688 -0.03413688       0.028
   0.03413688 -0.01137896 -0.01137896       0.028
   0.01137896  0.01137896  0.05689480       0.028
  -0.01137896  0.03413688  0.07965272       0.056
   0.10241064 -0.07965272 -0.03413688       0.056
   0.07965272 -0.05689480 -0.01137896       0.056
   0.05689480 -0.03413688  0.01137896       0.056
   0.01137896  0.01137896  0.10241064       0.028
   0.12516856 -0.10241064 -0.01137896       0.056
   0.10241064 -0.07965272  0.01137896       0.056
   0.07965272 -0.05689480  0.03413688       0.056
   0.01137896  0.01137896 -0.12516856       0.028
  -0.01137896  0.03413688 -0.10241064       0.056
   0.01137896  0.01137896 -0.07965272       0.028
   0.03413688  0.03413688  0.03413688       0.009
   0.01137896  0.05689480  0.05689480       0.028
   0.12516856 -0.05689480 -0.05689480       0.028
   0.10241064 -0.03413688 -0.03413688       0.028
   0.03413688  0.03413688  0.07965272       0.028
   0.14792648 -0.07965272 -0.03413688       0.056
   0.12516856 -0.05689480 -0.01137896       0.056
   0.03413688  0.03413688 -0.14792648       0.028
   0.05689480  0.05689480  0.05689480       0.009
   0.17068440 -0.05689480 -0.05689480       0.028
 
 k-points in reciprocal lattice and weights: Kpoints from vasprun.xml                
   0.08333333  0.08333333  0.08333333       0.009
   0.25000000  0.08333333  0.08333333       0.028
   0.41666667  0.08333333  0.08333333       0.028
  -0.41666667  0.08333333  0.08333333       0.028
  -0.25000000  0.08333333  0.08333333       0.028
  -0.08333333  0.08333333  0.08333333       0.028
   0.25000000  0.25000000  0.08333333       0.028
   0.41666667  0.25000000  0.08333333       0.056
  -0.41666667  0.25000000  0.08333333       0.056
  -0.25000000  0.25000000  0.08333333       0.056
  -0.08333333  0.25000000  0.08333333       0.056
   0.41666667  0.41666667  0.08333333       0.028
  -0.41666667  0.41666667  0.08333333       0.056
  -0.25000000  0.41666667  0.08333333       0.056
  -0.08333333  0.41666667  0.08333333       0.056
  -0.41666667 -0.41666667  0.08333333       0.028
  -0.25000000 -0.41666667  0.08333333       0.056
  -0.25000000 -0.25000000  0.08333333       0.028
   0.25000000  0.25000000  0.25000000       0.009
   0.41666667  0.25000000  0.25000000       0.028
  -0.41666667  0.25000000  0.25000000       0.028
  -0.25000000  0.25000000  0.25000000       0.028
   0.41666667  0.41666667  0.25000000       0.028
  -0.41666667  0.41666667  0.25000000       0.056
  -0.25000000  0.41666667  0.25000000       0.056
  -0.41666667 -0.41666667  0.25000000       0.028
   0.41666667  0.41666667  0.41666667       0.009
  -0.41666667  0.41666667  0.41666667       0.028
 
 position of ions in fractional coordinates (direct lattice) 
   0.00000000  0.00000000  0.00000000
   0.50000000  0.50000000  0.50000000
   0.75000000  0.75000000  0.75000000
   0.25000000  0.25000000  0.25000000
 
 position of ions in cartesian coordinates  (Angst):
   0.00000000  0.00000000  0.00000000
   3.66172900  3.66172900  3.66172900
   5.49259350  5.49259350  5.49259350
   1.83086450  1.83086450  1.83086450
 


--------------------------------------------------------------------------------------------------------


 k-point   1 :   0.0833 0.0833 0.0833  plane waves:    2688
 k-point   2 :   0.2500 0.0833 0.0833  plane waves:    2648
 k-point   3 :   0.4167 0.0833 0.0833  plane waves:    2642
 k-point   4 :  -0.4167 0.0833 0.0833  plane waves:    2639
 k-point   5 :  -0.2500 0.0833 0.0833  plane waves:    2647
 k-point   6 :  -0.0833 0.0833 0.0833  plane waves:    2672
 k-point   7 :   0.2500 0.2500 0.0833  plane waves:    2646
 k-point   8 :   0.4167 0.2500 0.0833  plane waves:    2648
 k-point   9 :  -0.4167 0.2500 0.0833  plane waves:    2640
 k-point  10 :  -0.2500 0.2500 0.0833  plane waves:    2645
 k-point  11 :  -0.0833 0.2500 0.0833  plane waves:    2654
 k-point  12 :   0.4167 0.4167 0.0833  plane waves:    2646
 k-point  13 :  -0.4167 0.4167 0.0833  plane waves:    2640
 k-point  14 :  -0.2500 0.4167 0.0833  plane waves:    2643
 k-point  15 :  -0.0833 0.4167 0.0833  plane waves:    2643
 k-point  16 :  -0.4167-0.4167 0.0833  plane waves:    2640
 k-point  17 :  -0.2500-0.4167 0.0833  plane waves:    2645
 k-point  18 :  -0.2500-0.2500 0.0833  plane waves:    2647
 k-point  19 :   0.2500 0.2500 0.2500  plane waves:    2650
 k-point  20 :   0.4167 0.2500 0.2500  plane waves:    2644
 k-point  21 :  -0.4167 0.2500 0.2500  plane waves:    2638
 k-point  22 :  -0.2500 0.2500 0.2500  plane waves:    2645
 k-point  23 :   0.4167 0.4167 0.2500  plane waves:    2652
 k-point  24 :  -0.4167 0.4167 0.2500  plane waves:    2648
 k-point  25 :  -0.2500 0.4167 0.2500  plane waves:    2642
 k-point  26 :  -0.4167-0.4167 0.2500  plane waves:    2630
 k-point  27 :   0.4167 0.4167 0.4167  plane waves:    2629
 k-point  28 :  -0.4167 0.4167 0.4167  plane waves:    2641

 maximum and minimum number of plane-waves per node :      2688     2629

 maximum number of plane-waves:      2688
 maximum index in each direction: 
   IXMAX=   10   IYMAX=   10   IZMAX=    9
   IXMIN=  -10   IYMIN=  -10   IZMIN=  -10


 serial   3D FFT for wavefunctions
 parallel 3D FFT for charge:
    minimum data exchange during FFTs selected (reduces bandwidth)


 total amount of memory used by VASP MPI-rank0    81448. kBytes
=======================================================================

   base      :      30000. kBytes
   nonlr-proj:       9831. kBytes
   fftplans  :       4661. kBytes
   grid      :      16665. kBytes
   one-center:        393. kBytes
   wavefun   :      19898. kBytes
 
     INWAV:  cpu time      0.0001: real time      0.0003
 Broyden mixing: mesh for mixing (old mesh)
   NGX = 19   NGY = 19   NGZ = 19
  (NGX  = 80   NGY  = 80   NGZ  = 80)
  gives a total of   6859 points

 initial charge density was supplied:
 charge density of overlapping atoms calculated
 number of electron      48.0000000 magnetization       8.8000000
 keeping initial charge density in first step


--------------------------------------------------------------------------------------------------------


 Maximum index for non-local projection operator         17861
 Maximum index for augmentation-charges         12509 (set IRDMAX)


--------------------------------------------------------------------------------------------------------


 First call to EWALD:  gamma=   0.384
 Maximum number of real-space cells 3x 3x 3
 Maximum number of reciprocal cells 3x 3x 3

    FEWALD:  cpu time      0.0005: real time      0.0005


--------------------------------------- Iteration      1(   1)  ---------------------------------------


    POTLOK:  cpu time      0.0997: real time      0.1950
    SETDIJ:  cpu time      0.9348: real time      0.9351
     EDDAV:  cpu time      1.9116: real time      1.9139
 BZINTS: Fermi energy:   13.785664;   48.000000 electrons
         Band energy: 0.841474E+02;  BLOECHL correction:   -1.066787
       DOS:  cpu time      0.1565: real time      0.1566
    --------------------------------------------
      LOOP:  cpu time      3.1026: real time      3.2005

 eigenvalue-minimisations  :  4616
 total energy-change (2. order) : 0.3133719E+03  (-0.2110293E+04)
 number of electron      48.0000000 magnetization       8.8000000
 augmentation part       48.0000000 magnetization       8.8000000

 Free energy of the ion-electron system (eV)
  ---------------------------------------------------
  alpha Z        PSCENC =       310.22726681
  Ewald energy   TEWEN  =     -4309.47723045
  -Hartree energ DENC   =     -1454.78889219
  -exchange      EXHF   =         0.00000000
  -V(xc)+E(xc)   XCENC  =        63.14914006
  PAW double counting   =      4950.12627859    -5024.49405437
  entropy T*S    EENTRO =         0.00000000
  eigenvalues    EBANDS =        84.14742225
  atomic energy  EATOM  =      5694.48197424
  Solvation  Ediel_sol  =         0.00000000
  ---------------------------------------------------
  free energy    TOTEN  =       313.37190494 eV

  energy without entropy =      313.37190494  energy(sigma->0) =      313.37190494


--------------------------------------------------------------------------------------------------------




--------------------------------------- Iteration      1(   2)  ---------------------------------------


     EDDAV:  cpu time      1.7265: real time      1.7282
 BZINTS: Fermi energy:    3.820546;   48.000000 electrons
         Band energy:-0.218334E+03;  BLOECHL correction:   -0.088814
       DOS:  cpu time      0.1160: real time      0.1161
    --------------------------------------------
      LOOP:  cpu time      1.8425: real time      1.8442

 eigenvalue-minimisations  :  4120
 total energy-change (2. order) :-0.3024816E+03  (-0.2822017E+03)
 number of electron      48.0000000 magnetization       8.8000000
 augmentation part       48.0000000 magnetization       8.8000000

 Free energy of the ion-electron system (eV)
  ---------------------------------------------------
  alpha Z        PSCENC =       310.22726681
  Ewald energy   TEWEN  =     -4309.47723045
  -Hartree energ DENC   =     -1454.78889219
  -exchange      EXHF   =         0.00000000
  -V(xc)+E(xc)   XCENC  =        63.14914006
  PAW double counting   =      4950.12627859    -5024.49405437
  entropy T*S    EENTRO =         0.00000000
  eigenvalues    EBANDS =      -218.33417491
  atomic energy  EATOM  =      5694.48197424
  Solvation  Ediel_sol  =         0.00000000
  ---------------------------------------------------
  free energy    TOTEN  =        10.89030778 eV

  energy without entropy =       10.89030778  energy(sigma->0) =       10.89030778


--------------------------------------------------------------------------------------------------------




--------------------------------------- Iteration      1(   3)  ---------------------------------------


     EDDAV:  cpu time      1.9055: real time      1.9066
 BZINTS: Fermi energy:    2.982462;   48.000000 electrons
         Band energy:-0.251379E+03;  BLOECHL correction:   -0.004397
       DOS:  cpu time      0.1056: real time      0.1057
    --------------------------------------------
      LOOP:  cpu time      2.0111: real time      2.0123

 eigenvalue-minimisations  :  4648
 total energy-change (2. order) :-0.3304500E+02  (-0.3132707E+02)
 number of electron      48.0000000 magnetization       8.8000000
 augmentation part       48.0000000 magnetization       8.8000000

 Free energy of the ion-electron system (eV)
  ---------------------------------------------------
  alpha Z        PSCENC =       310.22726681
  Ewald energy   TEWEN  =     -4309.47723045
  -Hartree energ DENC   =     -1454.78889219
  -exchange      EXHF   =         0.00000000
  -V(xc)+E(xc)   XCENC  =        63.14914006
  PAW double counting   =      4950.12627859    -5024.49405437
  entropy T*S    EENTRO =         0.00000000
  eigenvalues    EBANDS =      -251.37917000
  atomic energy  EATOM  =      5694.48197424
  Solvation  Ediel_sol  =         0.00000000
  ---------------------------------------------------
  free energy    TOTEN  =       -22.15468731 eV

  energy without entropy =      -22.15468731  energy(sigma->0) =      -22.15468731


--------------------------------------------------------------------------------------------------------




--------------------------------------- Iteration      1(   4)  ---------------------------------------


     EDDAV:  cpu time      2.2283: real time      2.2295
 BZINTS: Fermi energy:    2.959336;   48.000000 electrons
         Band energy:-0.253357E+03;  BLOECHL correction:   -0.002496
       DOS:  cpu time      0.1009: real time      0.1009
    --------------------------------------------
      LOOP:  cpu time      2.3292: real time      2.3305

 eigenvalue-minimisations  :  5648
 total energy-change (2. order) :-0.1977525E+01  (-0.1956394E+01)
 number of electron      48.0000000 magnetization       8.8000000
 augmentation part       48.0000000 magnetization       8.8000000

 Free energy of the ion-electron system (eV)
  ---------------------------------------------------
  alpha Z        PSCENC =       310.22726681
  Ewald energy   TEWEN  =     -4309.47723045
  -Hartree energ DENC   =     -1454.78889219
  -exchange      EXHF   =         0.00000000
  -V(xc)+E(xc)   XCENC  =        63.14914006
  PAW double counting   =      4950.12627859    -5024.49405437
  entropy T*S    EENTRO =         0.00000000
  eigenvalues    EBANDS =      -253.35669478
  atomic energy  EATOM  =      5694.48197424
  Solvation  Ediel_sol  =         0.00000000
  ---------------------------------------------------
  free energy    TOTEN  =       -24.13221209 eV

  energy without entropy =      -24.13221209  energy(sigma->0) =      -24.13221209


--------------------------------------------------------------------------------------------------------




--------------------------------------- Iteration      1(   5)  ---------------------------------------


     EDDAV:  cpu time      2.0316: real time      2.0337
 BZINTS: Fermi energy:    2.958861;   48.000000 electrons
         Band energy:-0.253418E+03;  BLOECHL correction:   -0.002512
       DOS:  cpu time      0.1015: real time      0.1015
    CHARGE:  cpu time      0.0753: real time      0.0754
    MIXING:  cpu time      0.0011: real time      0.0011
    --------------------------------------------
      LOOP:  cpu time      2.2096: real time      2.2117

 eigenvalue-minimisations  :  5040
 total energy-change (2. order) :-0.6180521E-01  (-0.6176308E-01)
 number of electron      48.0000002 magnetization       3.4468089
 augmentation part       22.9383547 magnetization       2.6339651

 Broyden mixing:
  rms(total) = 0.28594E+01    rms(broyden)= 0.28594E+01
  rms(prec ) = 0.72683E+01
  weight for this iteration     100.00

 Free energy of the ion-electron system (eV)
  ---------------------------------------------------
  alpha Z        PSCENC =       310.22726681
  Ewald energy   TEWEN  =     -4309.47723045
  -Hartree energ DENC   =     -1454.78889219
  -exchange      EXHF   =         0.00000000
  -V(xc)+E(xc)   XCENC  =        63.14914006
  PAW double counting   =      4950.12627859    -5024.49405437
  entropy T*S    EENTRO =         0.00000000
  eigenvalues    EBANDS =      -253.41849998
  atomic energy  EATOM  =      5694.48197424
  Solvation  Ediel_sol  =         0.00000000
  ---------------------------------------------------
  free energy    TOTEN  =       -24.19401729 eV

  energy without entropy =      -24.19401729  energy(sigma->0) =      -24.19401729


--------------------------------------------------------------------------------------------------------




--------------------------------------- Iteration      1(   6)  ---------------------------------------


    POTLOK:  cpu time      0.0068: real time      0.0082
    SETDIJ:  cpu time      0.9280: real time      0.9283
     EDDAV:  cpu time      2.2057: real time      2.2071
 BZINTS: Fermi energy:    7.871111;   48.000000 electrons
         Band energy:-0.188668E+03;  BLOECHL correction:   -0.055498
       DOS:  cpu time      0.1090: real time      0.1090
    CHARGE:  cpu time      0.0741: real time      0.0744
    MIXING:  cpu time      0.0015: real time      0.0054
    --------------------------------------------
      LOOP:  cpu time      3.3252: real time      3.3325

 eigenvalue-minimisations  :  5584
 total energy-change (2. order) :-0.1535920E+03  (-0.1650553E+03)
 number of electron      48.0000003 magnetization       2.3666694
 augmentation part       14.8362810 magnetization       2.4533648

 Broyden mixing:
  rms(total) = 0.74136E+01    rms(broyden)= 0.74136E+01
  rms(prec ) = 0.18461E+02
  weight for this iteration     100.00

 eigenvalues of (default mixing * dielectric matrix)
  average eigenvalue GAMMA=   0.1908
  0.1908

 Free energy of the ion-electron system (eV)
  ---------------------------------------------------
  alpha Z        PSCENC =       310.22726681
  Ewald energy   TEWEN  =     -4309.47723045
  -Hartree energ DENC   =     -1581.59887559
  -exchange      EXHF   =         0.00000000
  -V(xc)+E(xc)   XCENC  =        65.64830109
  PAW double counting   =      5304.89438555    -5473.29355240
  entropy T*S    EENTRO =         0.00000000
  eigenvalues    EBANDS =      -188.66828940
  atomic energy  EATOM  =      5694.48197424
  Solvation  Ediel_sol  =         0.00000000
  ---------------------------------------------------
  free energy    TOTEN  =      -177.78602016 eV

  energy without entropy =     -177.78602016  energy(sigma->0) =     -177.78602016


--------------------------------------------------------------------------------------------------------




--------------------------------------- Iteration      1(   7)  ---------------------------------------


    POTLOK:  cpu time      0.0070: real time      0.0073
    SETDIJ:  cpu time      0.9279: real time      0.9283
     EDDAV:  cpu time      1.9834: real time      1.9844
 BZINTS: Fermi energy:    7.512052;   48.000000 electrons
         Band energy:-0.221619E+03;  BLOECHL correction:   -0.039002
       DOS:  cpu time      0.0969: real time      0.0969
    CHARGE:  cpu time      0.0731: real time      0.0732
    MIXING:  cpu time      0.0012: real time      0.0012
    --------------------------------------------
      LOOP:  cpu time      3.0894: real time      3.0913

 eigenvalue-minimisations  :  4976
 total energy-change (2. order) : 0.1394034E+03  (-0.5924246E+01)
 number of electron      48.0000003 magnetization       3.5603708
 augmentation part       14.8819453 magnetization       2.6792878

 Broyden mixing:
  rms(total) = 0.59563E+01    rms(broyden)= 0.59563E+01
  rms(prec ) = 0.15167E+02
  weight for this iteration     100.00

 eigenvalues of (default mixing * dielectric matrix)
  average eigenvalue GAMMA=   0.6087
  0.6087  0.6087

 Free energy of the ion-electron system (eV)
  ---------------------------------------------------
  alpha Z        PSCENC =       310.22726681
  Ewald energy   TEWEN  =     -4309.47723045
  -Hartree energ DENC   =     -1458.35053970
  -exchange      EXHF   =         0.00000000
  -V(xc)+E(xc)   XCENC  =        60.92214063
  PAW double counting   =      5123.58797375    -5238.15512198
  entropy T*S    EENTRO =         0.00000000
  eigenvalues    EBANDS =      -221.61912052
  atomic energy  EATOM  =      5694.48197424
  Solvation  Ediel_sol  =         0.00000000
  ---------------------------------------------------
  free energy    TOTEN  =       -38.38265721 eV

  energy without entropy =      -38.38265721  energy(sigma->0) =      -38.38265721


--------------------------------------------------------------------------------------------------------




--------------------------------------- Iteration      1(   8)  ---------------------------------------


    POTLOK:  cpu time      0.0072: real time      0.0078
    SETDIJ:  cpu time      0.9305: real time      0.9308
     EDDAV:  cpu time      2.1806: real time      2.1817
 BZINTS: Fermi energy:    1.696836;   48.000000 electrons
         Band energy:-0.499927E+03;  BLOECHL correction:   -0.149400
       DOS:  cpu time      0.1025: real time      0.1025
    CHARGE:  cpu time      0.0731: real time      0.0731
    MIXING:  cpu time      0.0013: real time      0.0013
    --------------------------------------------
      LOOP:  cpu time      3.2953: real time      3.2972

 eigenvalue-minimisations  :  5488
 total energy-change (2. order) :-0.7555448E+02  (-0.8561423E+02)
 number of electron      48.0000000 magnetization       2.6112087
 augmentation part       26.1330930 magnetization       1.8916786

 Broyden mixing:
  rms(total) = 0.66863E+01    rms(broyden)= 0.66863E+01
  rms(prec ) = 0.16523E+02
  weight for this iteration     100.00

 eigenvalues of (default mixing * dielectric matrix)
  average eigenvalue GAMMA=   0.5350
  0.7186  0.7186  0.1680

 Free energy of the ion-electron system (eV)
  ---------------------------------------------------
  alpha Z        PSCENC =       310.22726681
  Ewald energy   TEWEN  =     -4309.47723045
  -Hartree energ DENC   =     -1322.53155396
  -exchange      EXHF   =         0.00000000
  -V(xc)+E(xc)   XCENC  =        56.19824819
  PAW double counting   =      4921.29696625    -4964.20541855
  entropy T*S    EENTRO =         0.00000000
  eigenvalues    EBANDS =      -499.92738700
  atomic energy  EATOM  =      5694.48197424
  Solvation  Ediel_sol  =         0.00000000
  ---------------------------------------------------
  free energy    TOTEN  =      -113.93713446 eV

  energy without entropy =     -113.93713446  energy(sigma->0) =     -113.93713446


--------------------------------------------------------------------------------------------------------




--------------------------------------- Iteration      1(   9)  ---------------------------------------


    POTLOK:  cpu time      0.0071: real time      0.0079
    SETDIJ:  cpu time      0.9302: real time      0.9306
     EDDAV:  cpu time      1.9447: real time      1.9457
 BZINTS: Fermi energy:    0.311765;   48.000000 electrons
         Band energy:-0.604392E+03;  BLOECHL correction:   -0.015881
       DOS:  cpu time      0.0919: real time      0.0919
    CHARGE:  cpu time      0.0732: real time      0.0732
    MIXING:  cpu time      0.0013: real time      0.0013
    --------------------------------------------
      LOOP:  cpu time      3.0483: real time      3.0506

 eigenvalue-minimisations  :  4776
 total energy-change (2. order) :-0.5345105E+02  (-0.7840763E+01)
 number of electron      48.0000002 magnetization       0.4919733
 augmentation part       26.3624812 magnetization       0.1346762

 Broyden mixing:
  rms(total) = 0.66088E+01    rms(broyden)= 0.66088E+01
  rms(prec ) = 0.17431E+02
  weight for this iteration     100.00

 eigenvalues of (default mixing * dielectric matrix)
  average eigenvalue GAMMA=   0.6653
  1.3914  0.3653  0.3653  0.5394

 Free energy of the ion-electron system (eV)
  ---------------------------------------------------
  alpha Z        PSCENC =       310.22726681
  Ewald energy   TEWEN  =     -4309.47723045
  -Hartree energ DENC   =     -1278.38870572
  -exchange      EXHF   =         0.00000000
  -V(xc)+E(xc)   XCENC  =        54.26306169
  PAW double counting   =      4925.01597481    -4959.11870087
  entropy T*S    EENTRO =         0.00000000
  eigenvalues    EBANDS =      -604.39182487
  atomic energy  EATOM  =      5694.48197424
  Solvation  Ediel_sol  =         0.00000000
  ---------------------------------------------------
  free energy    TOTEN  =      -167.38818435 eV

  energy without entropy =     -167.38818435  energy(sigma->0) =     -167.38818435


--------------------------------------------------------------------------------------------------------




--------------------------------------- Iteration      1(  10)  ---------------------------------------


    POTLOK:  cpu time      0.0071: real time      0.0075
    SETDIJ:  cpu time      0.9270: real time      0.9273
     EDDAV:  cpu time      1.6646: real time      1.6656
 BZINTS: Fermi energy:    0.118356;   48.000000 electrons
         Band energy:-0.535695E+03;  BLOECHL correction:   -0.012168
       DOS:  cpu time      0.0931: real time      0.0932
    CHARGE:  cpu time      0.0728: real time      0.0728
    MIXING:  cpu time      0.0013: real time      0.0013
    --------------------------------------------
      LOOP:  cpu time      2.7659: real time      2.7678

 eigenvalue-minimisations  :  3920
 total energy-change (2. order) : 0.3356230E+02  (-0.8520874E+00)
 number of electron      48.0000002 magnetization       0.4586942
 augmentation part       26.5985044 magnetization       0.4034389

 Broyden mixing:
  rms(total) = 0.61369E+01    rms(broyden)= 0.61369E+01
  rms(prec ) = 0.16416E+02
  weight for this iteration     100.00

 eigenvalues of (default mixing * dielectric matrix)
  average eigenvalue GAMMA=   0.6603
  1.4623  0.5009  0.5009  0.4186  0.4186

 Free energy of the ion-electron system (eV)
  ---------------------------------------------------
  alpha Z        PSCENC =       310.22726681
  Ewald energy   TEWEN  =     -4309.47723045
  -Hartree energ DENC   =     -1302.15352356
  -exchange      EXHF   =         0.00000000
  -V(xc)+E(xc)   XCENC  =        55.06063776
  PAW double counting   =      4922.60412800    -4968.87399260
  entropy T*S    EENTRO =         0.00000000
  eigenvalues    EBANDS =      -535.69514817
  atomic energy  EATOM  =      5694.48197424
  Solvation  Ediel_sol  =         0.00000000
  ---------------------------------------------------
  free energy    TOTEN  =      -133.82588797 eV

  energy without entropy =     -133.82588797  energy(sigma->0) =     -133.82588797


--------------------------------------------------------------------------------------------------------




--------------------------------------- Iteration      1(  11)  ---------------------------------------


    POTLOK:  cpu time      0.0067: real time      0.0075
    SETDIJ:  cpu time      0.9255: real time      0.9262
     EDDAV:  cpu time      1.8368: real time      1.8376
 BZINTS: Fermi energy:    0.163585;   48.000000 electrons
         Band energy:-0.446635E+03;  BLOECHL correction:   -0.013691
       DOS:  cpu time      0.0926: real time      0.0927
    CHARGE:  cpu time      0.0735: real time      0.0735
    MIXING:  cpu time      0.0013: real time      0.0013
    --------------------------------------------
      LOOP:  cpu time      2.9364: real time      2.9389

 eigenvalue-minimisations  :  4488
 total energy-change (2. order) : 0.4014386E+02  (-0.6181656E+00)
 number of electron      48.0000002 magnetization       0.1541098
 augmentation part       26.6444753 magnetization       0.1655911

 Broyden mixing:
  rms(total) = 0.56445E+01    rms(broyden)= 0.56445E+01
  rms(prec ) = 0.15357E+02
  weight for this iteration     100.00

 eigenvalues of (default mixing * dielectric matrix)
  average eigenvalue GAMMA=   0.6793
  1.6525  0.6268  0.6268  0.3643  0.3643  0.4412

 Free energy of the ion-electron system (eV)
  ---------------------------------------------------
  alpha Z        PSCENC =       310.22726681
  Ewald energy   TEWEN  =     -4309.47723045
  -Hartree energ DENC   =     -1336.82674465
  -exchange      EXHF   =         0.00000000
  -V(xc)+E(xc)   XCENC  =        56.31560816
  PAW double counting   =      4974.99138668    -5036.75925813
  entropy T*S    EENTRO =         0.00000000
  eigenvalues    EBANDS =      -446.63502895
  atomic energy  EATOM  =      5694.48197424
  Solvation  Ediel_sol  =         0.00000000
  ---------------------------------------------------
  free energy    TOTEN  =       -93.68202629 eV

  energy without entropy =      -93.68202629  energy(sigma->0) =      -93.68202629


--------------------------------------------------------------------------------------------------------




--------------------------------------- Iteration      1(  12)  ---------------------------------------


    POTLOK:  cpu time      0.0070: real time      0.0078
    SETDIJ:  cpu time      0.9265: real time      0.9268
     EDDAV:  cpu time      2.0505: real time      2.0518
 BZINTS: Fermi energy:    0.059414;   48.000000 electrons
         Band energy:-0.394656E+03;  BLOECHL correction:   -0.013616
       DOS:  cpu time      0.0907: real time      0.0907
    CHARGE:  cpu time      0.0728: real time      0.0728
    MIXING:  cpu time      0.0014: real time      0.0014
    --------------------------------------------
      LOOP:  cpu time      3.1489: real time      3.1513

 eigenvalue-minimisations  :  5120
 total energy-change (2. order) : 0.2345907E+02  (-0.2624180E+00)
 number of electron      48.0000002 magnetization       0.2033858
 augmentation part       26.7602363 magnetization       0.2295778

 Broyden mixing:
  rms(total) = 0.53919E+01    rms(broyden)= 0.53919E+01
  rms(prec ) = 0.14709E+02
  weight for this iteration     100.00

 eigenvalues of (default mixing * dielectric matrix)
  average eigenvalue GAMMA=   0.7611
  1.6252  0.9760  0.9760  0.4225  0.4225  0.4527  0.4527

 Free energy of the ion-electron system (eV)
  ---------------------------------------------------
  alpha Z        PSCENC =       310.22726681
  Ewald energy   TEWEN  =     -4309.47723045
  -Hartree energ DENC   =     -1353.76979908
  -exchange      EXHF   =         0.00000000
  -V(xc)+E(xc)   XCENC  =        56.94981983
  PAW double counting   =      5028.31583605    -5102.29482181
  entropy T*S    EENTRO =         0.00000000
  eigenvalues    EBANDS =      -394.65600521
  atomic energy  EATOM  =      5694.48197424
  Solvation  Ediel_sol  =         0.00000000
  ---------------------------------------------------
  free energy    TOTEN  =       -70.22295963 eV

  energy without entropy =      -70.22295963  energy(sigma->0) =      -70.22295963


--------------------------------------------------------------------------------------------------------




--------------------------------------- Iteration      1(  13)  ---------------------------------------


    POTLOK:  cpu time      0.0069: real time      0.0078
    SETDIJ:  cpu time      0.9333: real time      0.9336
     EDDAV:  cpu time      2.0102: real time      2.0114
 BZINTS: Fermi energy:   -0.053729;   48.000000 electrons
         Band energy:-0.340423E+03;  BLOECHL correction:   -0.010615
       DOS:  cpu time      0.0923: real time      0.0924
    CHARGE:  cpu time      0.0729: real time      0.0730
    MIXING:  cpu time      0.0014: real time      0.0014
    --------------------------------------------
      LOOP:  cpu time      3.1170: real time      3.1197

 eigenvalue-minimisations  :  5008
 total energy-change (2. order) : 0.2342517E+02  (-0.3144953E+00)
 number of electron      48.0000002 magnetization      -0.3231565
 augmentation part       26.8326081 magnetization      -0.3089338

 Broyden mixing:
  rms(total) = 0.50882E+01    rms(broyden)= 0.50882E+01
  rms(prec ) = 0.13975E+02
  weight for this iteration     100.00

 eigenvalues of (default mixing * dielectric matrix)
  average eigenvalue GAMMA=   0.6710
  1.6295  0.9591  0.9591  0.4213  0.4213  0.4552  0.4552  0.0673

 Free energy of the ion-electron system (eV)
  ---------------------------------------------------
  alpha Z        PSCENC =       310.22726681
  Ewald energy   TEWEN  =     -4309.47723045
  -Hartree energ DENC   =     -1373.34158377
  -exchange      EXHF   =         0.00000000
  -V(xc)+E(xc)   XCENC  =        57.63357933
  PAW double counting   =      5074.30281991    -5160.20166707
  entropy T*S    EENTRO =         0.00000000
  eigenvalues    EBANDS =      -340.42294364
  atomic energy  EATOM  =      5694.48197424
  Solvation  Ediel_sol  =         0.00000000
  ---------------------------------------------------
  free energy    TOTEN  =       -46.79778464 eV

  energy without entropy =      -46.79778464  energy(sigma->0) =      -46.79778464


--------------------------------------------------------------------------------------------------------




--------------------------------------- Iteration      1(  14)  ---------------------------------------


    POTLOK:  cpu time      0.0066: real time      0.0076
    SETDIJ:  cpu time      0.9247: real time      0.9250
     EDDAV:  cpu time      2.0635: real time      2.0645
 BZINTS: Fermi energy:   -0.120230;   48.000000 electrons
         Band energy:-0.340093E+03;  BLOECHL correction:   -0.011022
       DOS:  cpu time      0.0920: real time      0.0921
    CHARGE:  cpu time      0.0723: real time      0.0723
    MIXING:  cpu time      0.0015: real time      0.0015
    --------------------------------------------
      LOOP:  cpu time      3.1607: real time      3.1629

 eigenvalue-minimisations  :  5200
 total energy-change (2. order) : 0.1308617E+01  (-0.2493540E-01)
 number of electron      48.0000002 magnetization      -0.3049139
 augmentation part       26.8911020 magnetization      -0.2763683

 Broyden mixing:
  rms(total) = 0.50305E+01    rms(broyden)= 0.50305E+01
  rms(prec ) = 0.13891E+02
  weight for this iteration     100.00

 eigenvalues of (default mixing * dielectric matrix)
  average eigenvalue GAMMA=   0.6582
  1.6332  0.9502  0.9502  0.4163  0.4163  0.4589  0.4589  0.3199  0.3199

 Free energy of the ion-electron system (eV)
  ---------------------------------------------------
  alpha Z        PSCENC =       310.22726681
  Ewald energy   TEWEN  =     -4309.47723045
  -Hartree energ DENC   =     -1371.31904442
  -exchange      EXHF   =         0.00000000
  -V(xc)+E(xc)   XCENC  =        57.65795425
  PAW double counting   =      5065.81017220    -5152.77751367
  entropy T*S    EENTRO =         0.00000000
  eigenvalues    EBANDS =      -340.09274610
  atomic energy  EATOM  =      5694.48197424
  Solvation  Ediel_sol  =         0.00000000
  ---------------------------------------------------
  free energy    TOTEN  =       -45.48916714 eV

  energy without entropy =      -45.48916714  energy(sigma->0) =      -45.48916714


--------------------------------------------------------------------------------------------------------




--------------------------------------- Iteration      1(  15)  ---------------------------------------


    POTLOK:  cpu time      0.0066: real time      0.0078
    SETDIJ:  cpu time      0.9330: real time      0.9336
     EDDAV:  cpu time      2.0874: real time      2.0885
 BZINTS: Fermi energy:   -0.122084;   48.000000 electrons
         Band energy:-0.329269E+03;  BLOECHL correction:   -0.010767
       DOS:  cpu time      0.0916: real time      0.0916
    CHARGE:  cpu time      0.0727: real time      0.0727
    MIXING:  cpu time      0.0015: real time      0.0015
    --------------------------------------------
      LOOP:  cpu time      3.1928: real time      3.1958

 eigenvalue-minimisations  :  5192
 total energy-change (2. order) : 0.4344216E+01  (-0.1195056E-01)
 number of electron      48.0000002 magnetization      -0.4116622
 augmentation part       26.8700392 magnetization      -0.3868601

 Broyden mixing:
  rms(total) = 0.49811E+01    rms(broyden)= 0.49811E+01
  rms(prec ) = 0.13754E+02
  weight for this iteration     100.00

 eigenvalues of (default mixing * dielectric matrix)
  average eigenvalue GAMMA=   1.0123
  2.0547  2.0547  1.8040  0.9011  0.9011  0.4277  0.4277  0.5595  0.5595  0.4334

 Free energy of the ion-electron system (eV)
  ---------------------------------------------------
  alpha Z        PSCENC =       310.22726681
  Ewald energy   TEWEN  =     -4309.47723045
  -Hartree energ DENC   =     -1375.56372739
  -exchange      EXHF   =         0.00000000
  -V(xc)+E(xc)   XCENC  =        57.80113733
  PAW double counting   =      5076.61779163    -5165.96348790
  entropy T*S    EENTRO =         0.00000000
  eigenvalues    EBANDS =      -329.26867556
  atomic energy  EATOM  =      5694.48197424
  Solvation  Ediel_sol  =         0.00000000
  ---------------------------------------------------
  free energy    TOTEN  =       -41.14495130 eV

  energy without entropy =      -41.14495130  energy(sigma->0) =      -41.14495130


--------------------------------------------------------------------------------------------------------




--------------------------------------- Iteration      1(  16)  ---------------------------------------


    POTLOK:  cpu time      0.0069: real time      0.0080
    SETDIJ:  cpu time      0.9336: real time      0.9339
     EDDAV:  cpu time      2.2537: real time      2.2554
 BZINTS: Fermi energy:    7.926313;   48.000000 electrons
         Band energy:-0.200572E+03;  BLOECHL correction:   -0.059627
       DOS:  cpu time      0.0868: real time      0.0869
    CHARGE:  cpu time      0.0731: real time      0.0732
    MIXING:  cpu time      0.0016: real time      0.0016
    --------------------------------------------
      LOOP:  cpu time      3.3556: real time      3.3590

 eigenvalue-minimisations  :  5712
 total energy-change (2. order) :-0.1747260E+02  (-0.2908965E+02)
 number of electron      48.0000003 magnetization       0.0716920
 augmentation part       14.2916476 magnetization      -0.2793015

 Broyden mixing:
  rms(total) = 0.54129E+01    rms(broyden)= 0.54129E+01
  rms(prec ) = 0.14844E+02
  weight for this iteration     100.00

 eigenvalues of (default mixing * dielectric matrix)
  average eigenvalue GAMMA=   0.9064
  1.8967  1.8967  1.5627  0.6268  0.6268  0.7754  0.7754  0.4299  0.4299  0.5142
  0.4365

 Free energy of the ion-electron system (eV)
  ---------------------------------------------------
  alpha Z        PSCENC =       310.22726681
  Ewald energy   TEWEN  =     -4309.47723045
  -Hartree energ DENC   =     -1474.31999816
  -exchange      EXHF   =         0.00000000
  -V(xc)+E(xc)   XCENC  =        61.16231485
  PAW double counting   =      5312.08397307    -5452.20344099
  entropy T*S    EENTRO =         0.00000000
  eigenvalues    EBANDS =      -200.57240586
  atomic energy  EATOM  =      5694.48197424
  Solvation  Ediel_sol  =         0.00000000
  ---------------------------------------------------
  free energy    TOTEN  =       -58.61754650 eV

  energy without entropy =      -58.61754650  energy(sigma->0) =      -58.61754650


--------------------------------------------------------------------------------------------------------




--------------------------------------- Iteration      1(  17)  ---------------------------------------


    POTLOK:  cpu time      0.0067: real time      0.0076
    SETDIJ:  cpu time      0.9333: real time      0.9337
     EDDAV:  cpu time      2.1906: real time      2.1919
 BZINTS: Fermi energy:    7.732533;   48.000000 electrons
         Band energy:-0.199128E+03;  BLOECHL correction:   -0.058596
       DOS:  cpu time      0.1050: real time      0.1051
    CHARGE:  cpu time      0.0733: real time      0.0733
    MIXING:  cpu time      0.0016: real time      0.0016
    --------------------------------------------
      LOOP:  cpu time      3.3106: real time      3.3133

 eigenvalue-minimisations  :  5560
 total energy-change (2. order) :-0.6226378E+01  (-0.6343452E+00)
 number of electron      48.0000003 magnetization      -0.1280934
 augmentation part       14.4702925 magnetization      -0.1345135

 Broyden mixing:
  rms(total) = 0.55615E+01    rms(broyden)= 0.55615E+01
  rms(prec ) = 0.15212E+02
  weight for this iteration     100.00

 eigenvalues of (default mixing * dielectric matrix)
  average eigenvalue GAMMA=   0.8430
  1.7778  1.2455  1.2455  0.9000  0.9000  0.8968  0.7889  0.4295  0.4295  0.5302
  0.5302  0.4416

 Free energy of the ion-electron system (eV)
  ---------------------------------------------------
  alpha Z        PSCENC =       310.22726681
  Ewald energy   TEWEN  =     -4309.47723045
  -Hartree energ DENC   =     -1479.76656287
  -exchange      EXHF   =         0.00000000
  -V(xc)+E(xc)   XCENC  =        61.28637209
  PAW double counting   =      5317.07565184    -5459.54302091
  entropy T*S    EENTRO =         0.00000000
  eigenvalues    EBANDS =      -199.12837506
  atomic energy  EATOM  =      5694.48197424
  Solvation  Ediel_sol  =         0.00000000
  ---------------------------------------------------
  free energy    TOTEN  =       -64.84392430 eV

  energy without entropy =      -64.84392430  energy(sigma->0) =      -64.84392430


--------------------------------------------------------------------------------------------------------




--------------------------------------- Iteration      1(  18)  ---------------------------------------


    POTLOK:  cpu time      0.0070: real time      0.0073
    SETDIJ:  cpu time      0.9383: real time      0.9387
     EDDAV:  cpu time      2.0617: real time      2.0627
 BZINTS: Fermi energy:    7.587486;   48.000000 electrons
         Band energy:-0.208631E+03;  BLOECHL correction:   -0.054501
       DOS:  cpu time      0.1008: real time      0.1008
    CHARGE:  cpu time      0.0734: real time      0.0735
    MIXING:  cpu time      0.0016: real time      0.0016
    --------------------------------------------
      LOOP:  cpu time      3.1829: real time      3.1846

 eigenvalue-minimisations  :  5184
 total energy-change (2. order) : 0.2010039E+02  (-0.2237226E+00)
 number of electron      48.0000003 magnetization      -0.6519453
 augmentation part       14.5049391 magnetization      -0.4758078

 Broyden mixing:
[...]
  209        strkin                                0.000234                            1   3
  210          m_sumb_d                              0.000016                          1   4
  211        strelo                                0.001158                            1   3
  212          m_sumb_d                              0.000009                          2   4
  213        strnlr                                1.086142                            1   3
  214          rspher_all                            0.076951                          9   4
  215          phaser                                0.420675                        252   4
  216          rpro_isp                              0.581562                        252   4
  217            fftwav_mpi                            0.124473                     4032   5
  218              fftwav                                0.119870                   4032   6
  219                fft3d                                 0.027075                 4032   7
  220            rpromu_acc                            0.175923                     1008   5
  221          m_sumb_d                              0.000014                          1   4
  222        fft3d_mpi                             0.003159                           22   3
  223          fftbrc_mpi                            0.002477                         22   4
  224            fftbas_plan_mpi                       0.002464                       22   5
  225              map_forward                           0.000857                     20   6
  226                map_gather                            0.000206                   10   7
  227                m_alltoallv_z                         0.000124                   10   7
  228                map_scatter                           0.000391                   10   7
  229              map_backward                          0.001003                     24   6
  230                map_gather                            0.000230                   12   7
  231                m_alltoallv_z                         0.000133                   12   7
  232                map_scatter                           0.000473                   12   7
  233        m_sumb_d                              0.000024                            5   3
  234        forhar                                0.001308                            2   3
  235          m_sumb_d                              0.000043                          2   4
  236        strehar                               0.000863                            1   3
  237          m_sumb_d                              0.000003                          1   4
  238        chggra                                0.000737                            1   3
  239          fft3d_mpi                             0.000444                          3   4
  240            fftbrc_mpi                            0.000350                        3   5
  241              fftbas_plan_mpi                       0.000349                      3   6
  242                map_forward                           0.000187                    4   7
  243                  map_gather                            0.000040                  2   8
  244                  m_alltoallv_z                         0.000025                  2   8
  245                  map_scatter                           0.000095                  2   8
  246                map_backward                          0.000080                    2   7
  247                  map_gather                            0.000020                  1   8
  248                  m_alltoallv_z                         0.000010                  1   8
  249                  map_scatter                           0.000036                  1   8
  250          m_sumb_d                              0.000009                          2   4
  251          pothar                                0.000069                          1   4
  252            m_sumb_d                              0.000004                        1   5
  253        brmix                                 0.004572                            1   3
  254          m_sumb_d                              0.000017                          6   4
  255          brpre                                 0.000016                          2   4
  256          setg0                                 0.000460                          1   4
  257          broyd                                 0.003504                          1   4
  258            m_sumb_d                              0.000237                       51   5
  259            brget                                 0.000640                      229   5
  260            brsav                                 0.000136                       49   5
  261        m_bcast_d                             0.000018                            2   3
  262      potlok                                0.018335                              2   2
  263        fft3d_mpi                             0.012177                           36   3
  264          fftbrc_mpi                            0.010243                         36   4
  265            fftbas_plan_mpi                       0.010227                       36   5
  266              map_forward                           0.003042                     40   6
  267                map_gather                            0.001050                   24   7
  268                m_alltoallv_z                         0.000911                   24   7
  269                map_scatter                           0.000906                   24   7
  270              map_backward                          0.002593                     32   6
  271                map_gather                            0.000806                   16   7
  272                m_alltoallv_z                         0.000815                   16   7
  273                map_scatter                           0.000795                   16   7
  274              dfftw_execute                         0.003050                     30   6
  275        m_sumb_d                              0.000026                            5   3
  276        pothar                                0.000681                            2   3
  277          m_sumb_d                              0.000041                          2   4
  278        m_bcast_d                             0.001126                            4   3
  279      potlok_metagga                        0.000000                              1   2
  280      set_dd_magatom                        0.000004                              1   2
  281      set_dd_paw                            0.928306                              1   2
  282        m_sumb_d                              0.466910                            7   3
  283      augmentation_charge                   0.008817                              1   2
  284        fft3d_mpi                             0.001936                            2   3
  285          fftbrc_mpi                            0.001690                          2   4
  286            fftbas_plan_mpi                       0.001689                        2   5
  287              dfftw_execute                         0.000744                      6   6
  288              map_backward                          0.000761                      4   6
  289                map_gather                            0.000297                    2   7
  290                m_alltoallv_z                         0.000258                    2   7
  291                map_scatter                           0.000203                    2   7
  292      densta                                2.602276                              1   2
 
 Flat profile
 ============
 
             routine name                   CPU           calls
 ---------------------------------------------------------------
 m_sumb_d                               69.044246      285389
 set_dd_paw                             47.202924         102
 lapack                                 41.232657       90464
 eddav                                  40.585240         104
 raccmu_                                36.196164       90464
 redis_pw                               16.461539      507952
 densta                                 12.861625         105
 init_acc                               11.494707           1
 phaser                                 10.058620        6188
 m_alltoall_d                            9.350054     1315328
 total_time                              5.575765           1
 redis_proj                              4.258666      642344
 eccp                                    4.008262       46592
 fft3d                                   3.963599      538690
 fftwav                                  3.405441      357762
 orth1                                   3.002391      271448
 soft_charge                             2.775777         100
 racc0mu_acc                             2.633150       90464
 overl                                   2.629924      315320
 w1_copy                                 2.606168      542784
 acc_init_cublas                         2.419521           1
 rpromu_acc                              2.183374       68624
 hamiltmu                                1.923928       90464
 m_bcast_z                               1.821131       92256
 setup_precond                           1.678508       46592
 m_bcast_d                               1.521390      181137
 overl_mu                                1.371518       90464
 ggemm                                   1.152577      113760
 pw_charge                               0.947058       36674
 vhamil                                  0.827899      180928
 kinhamil                                0.816849      180928
 acc_init_cusolver                       0.787697           1
 fftext_mpi                              0.771270      180928
 apply_precond                           0.730464      134336
 depsum                                  0.723716         100
 newband                                 0.722845       96288
 augmentation_charge                     0.680680         101
 setdij_                                 0.663094         128
 set_charge                              0.507803         100
 fftwav_mpi                              0.455269      357762
 rpro_isp                                0.392248         364
 potlok                                  0.278360         102
 m_alltoallv_z                           0.236510        3483
 fft3d_mpi                               0.190433      184007
 lincom                                  0.174160        5880
 broyd                                   0.167000         100
 elmin                                   0.161409           1
 map_scatter                             0.138717        3483
 acc_cufft_makeplan                      0.125027          19
 rspher_all                              0.115417          14
 fftbas_plan_mpi                         0.114290        3079
 dfftw_execute                           0.105150        1284
 map_gather                              0.101230        3483
 w1_projall                              0.064484       67168
 brmix                                   0.053786         100
 brget                                   0.048979       18681
 setg0                                   0.046084         102
 proall                                  0.042456           1
 sphpro_fast                             0.031978           2
 truncate_high_frequency_w1              0.018482      227520
 map_backward                            0.018267        3274
 map_forward                             0.017664        2884
 brsav                                   0.013084        5106
 orthch                                  0.012076           1
 choleski                                0.008423          56
 force_and_stress                        0.008382           1
 pothar                                  0.007888         103
 strnlr                                  0.006941           1
 inisym                                  0.004752           1
 fft_gq                                  0.003289         100
 fornlr                                  0.002389           1
 stufak                                  0.001914           1
 fftbrc_mpi                              0.001542        3079
 brpre                                   0.001529         200
 forhar                                  0.001265           2
 strelo                                  0.001149           1
 strehar                                 0.000860           1
 forloc                                  0.000660           1
 vectorpot                               0.000409         101
 set_dd_magatom                          0.000382         102
 fewald                                  0.000331           1
 strkin                                  0.000218           1
 chggra                                  0.000215           1
 brgrid                                  0.000120           1
 rsp                                     0.000048           1
 posmap                                  0.000034           2
 crpa_reader                             0.000027           1
 fordep                                  0.000025           1
 rcp                                     0.000011           1
 acc_cufft_makeplans                     0.000010           3
 potlok_metagga                          0.000005         101
 rotate_active_occupied_orbital          0.000000           1
 redis_pw_over_bands                     0.000000           1
 ---------------------------------------------------------------
  summed up times     354.7736229896545     
 
 Accumulative profile
 ====================
 
             routine name                   CPU           calls
 ---------------------------------------------------------------
 total_time                            354.773623           1
 elmin                                 327.612558           1
 eddav                                 215.180485         104
 set_dd_paw                             94.982314         102
 m_sumb_d                               69.044246      285389
 hamiltmu                               45.860650       90464
 lapack                                 41.232657       90464
 raccmu_                                40.200832       90464
 redis_pw                               20.968130      507952
 densta                                 12.861625         105
 init_acc                               11.494707           1
 phaser                                 10.058620        6188
 newband                                 9.811565       96288
 m_alltoall_d                            9.350054     1315328
 redis_proj                              9.102129      642344
 set_charge                              7.231224         100
 fftwav_mpi                              6.557020      357762
 fftwav                                  6.101751      357762
 soft_charge                             5.062343         100
 eccp                                    4.008262       46592
 fft3d                                   3.963599      538690
 orth1                                   3.002391      271448
 kinhamil                                2.907991      180928
 racc0mu_acc                             2.633150       90464
 overl                                   2.629924      315320
 w1_copy                                 2.606168      542784
 force_and_stress                        2.601700           1
 acc_init_cublas                         2.419521           1
 fft3d_mpi                               2.191091      184007
 rpromu_acc                              2.183374       68624
 fftext_mpi                              2.091141      180928
 w1_projall                              2.009395       67168
 m_bcast_z                               1.821131       92256
 setup_precond                           1.678508       46592
 m_bcast_d                               1.521390      181137
 overl_mu                                1.371518       90464
 ggemm                                   1.152577      113760
 strnlr                                  1.086142           1
 pw_charge                               0.947058       36674
 augmentation_charge                     0.867528         101
 potlok                                  0.854141         102
 vhamil                                  0.827899      180928
 rpro_isp                                0.804332         364
 acc_init_cusolver                       0.787697           1
 fftbrc_mpi                              0.733369        3079
 fftbas_plan_mpi                         0.731827        3079
 depsum                                  0.731559         100
 apply_precond                           0.730464      134336
 setdij_                                 0.672549         128
 fornlr                                  0.363098           1
 brmix                                   0.352480         100
 orthch                                  0.314953           1
 map_forward                             0.299778        2884
 broyd                                   0.247473         100
 m_alltoallv_z                           0.236510        3483
 map_backward                            0.212609        3274
 lincom                                  0.174160        5880
 map_scatter                             0.138717        3483
 acc_cufft_makeplans                     0.125037           3
 acc_cufft_makeplan                      0.125027          19
 proall                                  0.120455           1
 rspher_all                              0.115417          14
 dfftw_execute                           0.105150        1284
 fft_gq                                  0.103787         100
 map_gather                              0.101230        3483
 brget                                   0.048979       18681
 setg0                                   0.046084         102
 sphpro_fast                             0.032818           2
 fordep                                  0.031105           1
 truncate_high_frequency_w1              0.018482      227520
 brsav                                   0.013084        5106
 pothar                                  0.008740         103
 choleski                                0.008423          56
 inisym                                  0.004786           1
 stufak                                  0.001914           1
 brpre                                   0.001529         200
 forhar                                  0.001308           2
 strelo                                  0.001158           1
 strehar                                 0.000863           1
 chggra                                  0.000737           1
 forloc                                  0.000691           1
 fewald                                  0.000466           1
 vectorpot                               0.000409         101
 set_dd_magatom                          0.000382         102
 strkin                                  0.000234           1
 brgrid                                  0.000120           1
 rsp                                     0.000048           1
 posmap                                  0.000034           2
 crpa_reader                             0.000027           1
 rcp                                     0.000011           1
 potlok_metagga                          0.000005         101
 rotate_active_occupied_orbital          0.000000           1
 redis_pw_over_bands                     0.000000           1
 ---------------------------------------------------------------
 
Profiling took   1.111333  0.548663  0.003222  0.003160 seconds
Profiling took   0.673849 seconds
