 vasp.6.3.2 27Jun22 (build Jul  3 2023 11:46:21) complex                         
 executed on    LinuxNV_CrayMPICH date 2024.04.22  04:00:18
 running on    4 total cores
 distrk:  each k-point on    4 cores,    1 groups
 distr:  one band on NCORE=   1 cores,    4 groups


--------------------------------------------------------------------------------------------------------


 INCAR:
   ADDGRID = True
   ALGO = Normal
   EDIFF = 0.0007
   ENCUT = 520.0
   IBRION = -1
   ICHARG = 0
   ISIF = 3
   ISMEAR = -5
   ISPIN = 2
   KPOINT_BSE = -1 0 0 0
   LAECHG = True
   LASPH = True
   LCHARG = True
   LELF = True
   LORBIT = 11
   LREAL = Auto
   LVHAR = True
   LWAVE = False
   MAGMOM = 4*0.6 2*7.0 8*0.6
   NELM = 1000
   NSW = 0
   PREC = accurate
   SIGMA = 0.05

 POTCAR:    PAW_PBE Yb_2 06Sep2000                
 POTCAR:    PAW_PBE Eu 23Dec2003                  
 POTCAR:    PAW_PBE S 06Sep2000                   
 POTCAR:    PAW_PBE Yb_2 06Sep2000                
   SHA256 =  447ea688f1b29a5c5d62bbadb2b3e4a6902763696c282b59e85a911f7e119eeb Yb_2/POTCAR           
   COPYR  = (c) Copyright 06Sep2000 Georg Kresse                                                    
   COPYR  = This file is part of the software VASP. Any use, copying, and all other rights are regul
   COPYR  = If you do not have a valid VASP license, you may not use, copy or distribute this file. 
   VRHFIN =Yb : [core=Xe4]                                                                          
   LEXCH  = PE                                                                                      
   EATOM  =   572.3552 eV,   42.0669 Ry                                                             
                                                                                                    
   TITEL  = PAW_PBE Yb_2 06Sep2000                                                                  
   LULTRA =        F    use ultrasoft PP ?                                                          
   IUNSCR =        1    unscreen: 0-lin 1-nonlin 2-no                                               
   RPACOR =    2.400    partial core radius                                                         
   POMASS =  173.040; ZVAL   =    8.000    mass and valenz                                          
   RCORE  =    3.100    outmost cutoff radius                                                       
   RWIGS  =    3.300; RWIGS  =    1.746    wigner-seitz radius (au A)                               
   ENMAX  =  112.578; ENMIN  =   84.433 eV                                                          
   RCLOC  =    2.410    cutoff for local pot                                                        
   LCOR   =        T    correct aug charges                                                         
   LPAW   =        T    paw PP                                                                      
   EAUG   =  301.012                                                                                
   DEXC   =    0.000                                                                                
   RMAX   =    3.170    core radius for proj-oper                                                   
   RAUG   =    1.300    factor for augmentation sphere                                              
   RDEP   =    3.215    radius for radial grids                                                     
   RDEPT  =    2.473    core radius for aug-charge                                                  
                                                                                                    
   Atomic configuration                                                                             
   14 entries                                                                                       
     n  l   j            E        occ.                                                              
     1  0  0.50    -61220.9726   2.0000                                                             
     2  0  0.50    -10371.0425   2.0000                                                             
     2  1  1.50     -9138.3712   6.0000                                                             
     3  0  0.50     -2337.6588   2.0000                                                             
     3  1  1.50     -1966.2680   6.0000                                                             
     3  2  2.50     -1514.8100  10.0000                                                             
     4  0  0.50      -459.9070   2.0000                                                             
     4  1  1.50      -338.0537   6.0000                                                             
     4  2  2.50      -177.8445  10.0000                                                             
     4  3  2.50        -3.0334  14.0000                                                             
     5  0  0.50       -54.9037   2.0000                                                             
     6  0  0.50        -3.9192   2.0000                                                             
     5  1  1.50       -27.4093   6.0000                                                             
     5  2  2.50        -2.0436   0.0000                                                             
   Description                                                                                      
     l       E           TYP  RCUT    TYP  RCUT                                                     
     0     -3.9192173     23  3.100                                                                 
     0     13.6058260     23  3.100                                                                 
     1    -27.4092538     23  3.100                                                                 
     1    -28.7698364     23  3.100                                                                 
     2     -2.0435951     23  3.100                                                                 
     2      2.2720029     23  3.100                                                                 
  local pseudopotential read in
  partial core-charges read in
  partial kinetic energy density read in
  atomic valenz-charges read in
  non local Contribution for L=            0  read in
    real space projection operators read in
  non local Contribution for L=            0  read in
    real space projection operators read in
  non local Contribution for L=            1  read in
    real space projection operators read in
  non local Contribution for L=            1  read in
    real space projection operators read in
  non local Contribution for L=            2  read in
    real space projection operators read in
  non local Contribution for L=            2  read in
    real space projection operators read in
    PAW grid and wavefunctions read in
 
   number of l-projection  operators is LMAX  =            6
   number of lm-projection operators is LMMAX =           18
 
 POTCAR:    PAW_PBE Eu 23Dec2003                  
   SHA256 =  ed303d27e7c5191953f9b15539336e6f36d9037c1d2e92e80c13d733697cb93d Eu/POTCAR             
   COPYR  = (c) Copyright 23Dec2003 Georg Kresse                                                    
   COPYR  = This file is part of the software VASP. Any use, copying, and all other rights are regul
   COPYR  = If you do not have a valid VASP license, you may not use, copy or distribute this file. 
   VRHFIN =Eu : [core=Kr4d]                                                                         
   LEXCH  = PE                                                                                      
   EATOM  =  2619.8085 eV,  192.5505 Ry                                                             
                                                                                                    
   TITEL  = PAW_PBE Eu 23Dec2003                                                                    
   LULTRA =        F    use ultrasoft PP ?                                                          
   IUNSCR =        1    unscreen: 0-lin 1-nonlin 2-no                                               
   RPACOR =    2.300    partial core radius                                                         
   POMASS =  151.965; ZVAL   =   17.000    mass and valenz                                          
   RCORE  =    2.800    outmost cutoff radius                                                       
   RWIGS  =    2.800; RWIGS  =    1.482    wigner-seitz radius (au A)                               
   ENMAX  =  249.668; ENMIN  =  187.251 eV                                                          
   RCLOC  =    2.308    cutoff for local pot                                                        
   LCOR   =        T    correct aug charges                                                         
   LPAW   =        T    paw PP                                                                      
   EAUG   =  549.628                                                                                
   DEXC   =    0.000                                                                                
   RMAX   =    2.870    core radius for proj-oper                                                   
   RAUG   =    1.300    factor for augmentation sphere                                              
   RDEP   =    2.887    radius for radial grids                                                     
   RDEPT  =    2.221    core radius for aug-charge                                                  
                                                                                                    
   Atomic configuration                                                                             
   14 entries                                                                                       
     n  l   j            E        occ.                                                              
     1  0  0.50    -48354.7667   2.0000                                                             
     2  0  0.50     -7939.6472   2.0000                                                             
     2  1  1.50     -7072.6637   6.0000                                                             
     3  0  0.50     -1747.1875   2.0000                                                             
     3  1  1.50     -1477.5221   6.0000                                                             
     3  2  2.50     -1117.4686  10.0000                                                             
     4  0  0.50      -346.8682   2.0000                                                             
     4  1  1.50      -258.1962   6.0000                                                             
     4  2  2.50      -134.7724  10.0000                                                             
     5  0  0.50       -44.6510   2.0000                                                             
     6  0  0.50        -3.6227   2.0000                                                             
     5  1  1.50       -23.7639   6.0000                                                             
     5  2  2.50        -1.3130   0.0000                                                             
     4  3  2.50        -2.7310   7.0000                                                             
   Description                                                                                      
     l       E           TYP  RCUT    TYP  RCUT                                                     
     0    -44.6510453     23  2.400                                                                 
     0     -3.6226685     23  2.400                                                                 
     1    -23.7638687     23  2.400                                                                 
     1     27.2116520     23  2.400                                                                 
     2     -1.3129622     23  2.500                                                                 
     2     13.6058260     23  2.500                                                                 
     3     -2.7309948     23  2.800                                                                 
     3     -3.4014565     23  2.800                                                                 
  local pseudopotential read in
  partial core-charges read in
  partial kinetic energy density read in
  atomic valenz-charges read in
  non local Contribution for L=            0  read in
    real space projection operators read in
  non local Contribution for L=            0  read in
    real space projection operators read in
  non local Contribution for L=            1  read in
    real space projection operators read in
  non local Contribution for L=            1  read in
    real space projection operators read in
  non local Contribution for L=            2  read in
    real space projection operators read in
  non local Contribution for L=            2  read in
    real space projection operators read in
  non local Contribution for L=            3  read in
    real space projection operators read in
  non local Contribution for L=            3  read in
    real space projection operators read in
    PAW grid and wavefunctions read in
 
   number of l-projection  operators is LMAX  =            8
   number of lm-projection operators is LMMAX =           32
 
 POTCAR:    PAW_PBE S 06Sep2000                   
   SHA256 =  0fc7481fb0695f01bdc6462160264c5c84044ae9ec85a907d398b887a2bc3132 S/POTCAR              
   COPYR  = (c) Copyright 06Sep2000 Georg Kresse                                                    
   COPYR  = This file is part of the software VASP. Any use, copying, and all other rights are regul
   COPYR  = If you do not have a valid VASP license, you may not use, copy or distribute this file. 
   VRHFIN =S : s2p4                                                                                 
   LEXCH  = PE                                                                                      
   EATOM  =   276.8230 eV,   20.3459 Ry                                                             
                                                                                                    
   TITEL  = PAW_PBE S 06Sep2000                                                                     
   LULTRA =        F    use ultrasoft PP ?                                                          
   IUNSCR =        1    unscreen: 0-lin 1-nonlin 2-no                                               
   RPACOR =    1.500    partial core radius                                                         
   POMASS =   32.066; ZVAL   =    6.000    mass and valenz                                          
   RCORE  =    1.900    outmost cutoff radius                                                       
   RWIGS  =    2.200; RWIGS  =    1.164    wigner-seitz radius (au A)                               
   ENMAX  =  258.689; ENMIN  =  194.016 eV                                                          
   ICORE  =        2    local potential                                                             
   LCOR   =        T    correct aug charges                                                         
   LPAW   =        T    paw PP                                                                      
   EAUG   =  335.092                                                                                
   DEXC   =    0.000                                                                                
   RMAX   =    1.942    core radius for proj-oper                                                   
   RAUG   =    1.300    factor for augmentation sphere                                              
   RDEP   =    1.954    radius for radial grids                                                     
   RDEPT  =    1.744    core radius for aug-charge                                                  
                                                                                                    
   Atomic configuration                                                                             
    6 entries                                                                                       
     n  l   j            E        occ.                                                              
     1  0  0.50     -2405.8406   2.0000                                                             
     2  0  0.50      -211.7007   2.0000                                                             
     2  1  1.50      -156.4958   6.0000                                                             
     3  0  0.50       -17.2562   2.0000                                                             
     3  1  0.50        -7.0085   4.0000                                                             
     3  2  1.50        -6.8029   0.0000                                                             
   Description                                                                                      
     l       E           TYP  RCUT    TYP  RCUT                                                     
     0    -17.2561641     23  1.900                                                                 
     0    -15.8743224     23  1.900                                                                 
     1     -7.0085400     23  1.900                                                                 
     1     -2.7779785     23  1.900                                                                 
     2     -6.8029130     23  1.900                                                                 
  local pseudopotential read in
  partial core-charges read in
  partial kinetic energy density read in
  atomic valenz-charges read in
  non local Contribution for L=            0  read in
    real space projection operators read in
  non local Contribution for L=            0  read in
    real space projection operators read in
  non local Contribution for L=            1  read in
    real space projection operators read in
  non local Contribution for L=            1  read in
    real space projection operators read in
    PAW grid and wavefunctions read in
 
   number of l-projection  operators is LMAX  =            4
   number of lm-projection operators is LMMAX =            8
 
 Optimization of the real space projectors (new method)

 maximal supplied QI-value         = 12.09
 optimisation between [QCUT,QGAM] = [ 11.61, 23.34] = [ 37.75,152.57] Ry 
 Optimized for a Real-space Cutoff    1.89 Angstroem

   l    n(q)    QCUT    max X(q) W(low)/X(q) W(high)/X(q)  e(spline) 
   0     13    11.610    37.655    0.45E-04    0.19E-04    0.34E-06
   0     13    11.610    17.791    0.29E-04    0.15E-04    0.27E-06
   1     13    11.610    36.143    0.15E-04    0.51E-06    0.99E-06
   1     13    11.610    36.445    0.16E-04    0.54E-06    0.10E-05
   2     12    11.610    14.662    0.21E-03    0.42E-03    0.57E-05
   2     12    11.610    15.811    0.17E-03    0.35E-03    0.47E-05
 Optimization of the real space projectors (new method)

 maximal supplied QI-value         = 13.42
 optimisation between [QCUT,QGAM] = [ 11.67, 23.35] = [ 38.16,152.62] Ry 
 Optimized for a Real-space Cutoff    1.63 Angstroem

   l    n(q)    QCUT    max X(q) W(low)/X(q) W(high)/X(q)  e(spline) 
   0     11    11.673    10.400    0.14E-04    0.18E-05    0.24E-07
   0     11    11.673    10.768    0.21E-04    0.32E-05    0.49E-07
   1     11    11.673     4.094    0.40E-05    0.13E-04    0.93E-07
   1     11    11.673     4.009    0.11E-04    0.46E-04    0.33E-06
   2     10    11.673    29.030    0.79E-04    0.60E-04    0.70E-06
   2     10    11.673    19.941    0.80E-04    0.60E-04    0.71E-06
   3     10    11.673    88.889    0.23E-03    0.29E-03    0.30E-06
   3     10    11.673    76.102    0.23E-03    0.30E-03    0.30E-06
 Optimization of the real space projectors (new method)

 maximal supplied QI-value         = 19.84
 optimisation between [QCUT,QGAM] = [ 11.51, 23.22] = [ 37.09,150.92] Ry 
 Optimized for a Real-space Cutoff    1.21 Angstroem

   l    n(q)    QCUT    max X(q) W(low)/X(q) W(high)/X(q)  e(spline) 
   0      8    11.508   187.594    0.96E-04    0.18E-03    0.54E-07
   0      8    11.508   164.243    0.96E-04    0.18E-03    0.54E-07
   1      8    11.508    67.533    0.18E-03    0.65E-04    0.94E-07
   1      8    11.508    50.729    0.18E-03    0.63E-04    0.92E-07
  PAW_PBE Yb_2 06Sep2000                :
 energy of atom  1       EATOM= -572.3552
 kinetic energy error for atom=    0.0001 (will be added to EATOM!!)
  PAW_PBE Eu 23Dec2003                  :
 energy of atom  2       EATOM=-2619.8085
 kinetic energy error for atom=    0.0015 (will be added to EATOM!!)
  PAW_PBE S 06Sep2000                   :
 energy of atom  3       EATOM= -276.8230
 kinetic energy error for atom=    0.0016 (will be added to EATOM!!)
 
 
 POSCAR: Yb4 Eu2 S8
  positions in direct lattice
  No initial velocities read in
 exchange correlation table for  LEXCH =        8
   RHO(1)=    0.500       N(1)  =     2000
   RHO(2)=  100.500       N(2)  =     4000

 VTST: version 4.2, (08/11/21)

 CHAIN: initializing optimizer
 
 OPT: Using VASP Dynamics algorithm
 CHAIN: Read ICHAIN             0
 
 POSCAR: Yb4 Eu2 S8
  positions in direct lattice
  No initial velocities read in
 


--------------------------------------------------------------------------------------------------------


 ion  position               nearest neighbor table
   1  0.375  0.000  0.125-   7 2.86  14 2.86  13 2.87  10 2.87   9 2.87  12 2.87  11 2.87   8 2.87
                             4 3.88   4 3.88   2 3.88   2 3.88
   2  0.750  0.625  0.625-  13 2.86   9 2.86  11 2.87  14 2.87   7 2.87   8 2.87  10 2.87  12 2.87
                             3 3.88   1 3.88   3 3.88   1 3.88
   3  0.875  0.250  0.875-   8 2.86  11 2.86   9 2.87  12 2.87  10 2.87  13 2.87   7 2.87  14 2.87
                             2 3.88   4 3.88   4 3.88   2 3.88
   4  1.000  0.125  0.375-  12 2.86  10 2.86   7 2.87   8 2.87  11 2.87  14 2.87  13 2.87   9 2.87
                             1 3.88   3 3.88   3 3.88   1 3.88
   5  0.250  0.750  0.500-   8 2.86   9 2.86  10 2.86  14 2.86  11 2.88  12 2.88  13 2.88   7 2.88

   6  0.500  0.500  0.000-   7 2.86  11 2.86  12 2.86  13 2.86   8 2.88   9 2.88  10 2.88  14 2.88

   7  0.625  0.875  0.415-   6 2.86   1 2.86   4 2.87   2 2.87   3 2.87   5 2.88
   8  0.290  0.375  0.250-   5 2.86   3 2.86   4 2.87   2 2.87   1 2.87   6 2.88
   9  0.625  0.875  0.915-   5 2.86   2 2.86   3 2.87   1 2.87   4 2.87   6 2.88
  10  0.960  0.710  0.085-   5 2.86   4 2.86   1 2.87   3 2.87   2 2.87   6 2.88
  11  0.460  0.210  0.585-   6 2.86   3 2.86   2 2.87   4 2.87   1 2.87   5 2.88
  12  0.125  0.540  0.750-   6 2.86   4 2.86   3 2.87   1 2.87   2 2.87   5 2.88
  13  0.790  0.375  0.250-   6 2.86   2 2.86   1 2.87   3 2.87   4 2.87   5 2.88
  14  0.125  0.040  0.750-   5 2.86   1 2.86   2 2.87   4 2.87   3 2.87   6 2.88
 
  LATTYP: Found a body centered tetragonal cell.
 ALAT       =     8.2860340000
 C/A-ratio  =     1.0018522734
  
  Lattice vectors:
  
 A1 = (  -4.1430170000,   4.1430170000,   4.1506910000)
 A2 = (   4.1430170000,  -4.1430170000,   4.1506910000)
 A3 = (   4.1430170000,   4.1430170000,  -4.1506910000)


Analysis of symmetry for initial positions (statically):
=====================================================================
 Subroutine PRICEL returns:
 Original cell was already a primitive cell.
 

 Routine SETGRP: Setting up the symmetry group for a 
 body centered tetragonal supercell.


 Subroutine GETGRP returns: Found  8 space group operations
 (whereof  4 operations were pure point group operations)
 out of a pool of 16 trial point group operations.


The static configuration has the point symmetry S_4 .
 The point group associated with its full space group is D_2d.


Analysis of symmetry for dynamics (positions and initial velocities):
=====================================================================
 Subroutine PRICEL returns:
 Original cell was already a primitive cell.
 

 Routine SETGRP: Setting up the symmetry group for a 
 body centered tetragonal supercell.


 Subroutine GETGRP returns: Found  8 space group operations
 (whereof  4 operations were pure point group operations)
 out of a pool of 16 trial point group operations.


The dynamic configuration has the point symmetry S_4 .
 The point group associated with its full space group is D_2d.


Analysis of structural, dynamic, and magnetic symmetry:
=====================================================================
 Subroutine PRICEL returns:
 Original cell was already a primitive cell.
 

 Routine SETGRP: Setting up the symmetry group for a 
 body centered tetragonal supercell.


 Subroutine GETGRP returns: Found  8 space group operations
 (whereof  4 operations were pure point group operations)
 out of a pool of 16 trial point group operations.


The overall configuration has the point symmetry S_4 .
 The point group associated with its full space group is D_2d.


 Subroutine INISYM returns: Found  8 space group operations
 (whereof  4 operations are pure point group operations),
 and found     1 'primitive' translations


----------------------------------------------------------------------------------------

                                     Primitive cell                                     

  volume of cell :     284.9796

  direct lattice vectors                    reciprocal lattice vectors
    -4.143017000  4.143017000  4.150691000     0.000000000  0.120684998  0.120461870
     4.143017000 -4.143017000  4.150691000     0.120684998  0.000000000  0.120461870
     4.143017000  4.143017000 -4.150691000     0.120684998  0.120684998  0.000000000

  length of vectors
     7.180349260  7.180349260  7.180349260     0.170516659  0.170516659  0.170674362

  position of ions in fractional coordinates (direct lattice)
     0.375000000  0.000036000  0.125036000
     0.750036000  0.625000000  0.625036000
     0.875000000  0.249964000  0.874964000
     0.999964000  0.125000000  0.374964000
     0.250000000  0.750000000  0.500000000
     0.500000000  0.500000000  0.000000000
     0.624792000  0.874769000  0.415240000
     0.290471000  0.375231000  0.250023000
     0.624769000  0.874792000  0.915240000
     0.959552000  0.709529000  0.084760000
     0.459529000  0.209552000  0.584760000
     0.125231000  0.540471000  0.750023000
     0.790448000  0.375208000  0.249977000
     0.125208000  0.040448000  0.749977000

  ion indices of the primitive-cell ions
   primitive index   ion index
                 1           1
                 2           2
                 3           3
                 4           4
                 5           5
                 6           6
                 7           7
                 8           8
                 9           9
                10          10
                11          11
                12          12
                13          13
                14          14

----------------------------------------------------------------------------------------

 
 
 KPOINTS: Kpoints from vasprun.xml                

Automatic generation of k-mesh.
 Grid dimensions read from file:
 generate k-points for:    4    4    4

 Generating k-lattice:

  Cartesian coordinates                     Fractional coordinates (reciprocal lattice)
     0.000000000  0.030171250  0.030115468     0.250000000  0.000000000 -0.000000000
     0.030171250  0.000000000  0.030115468     0.000000000  0.250000000 -0.000000000
     0.030171250  0.030171250  0.000000000     0.000000000 -0.000000000  0.250000000

  Length of vectors
     0.042629165  0.042629165  0.042668590

  Shift w.r.t. Gamma in fractional coordinates (k-lattice)
     0.000000000  0.000000000  0.000000000

 TETIRR: Found     80 inequivalent tetrahedra from      384
 
 Subroutine IBZKPT returns following result:
 ===========================================
 
 Found     13 irreducible k-points:
 
 Following reciprocal coordinates:
            Coordinates               Weight
  0.000000  0.000000  0.000000      1.000000
  0.250000  0.000000  0.000000      8.000000
  0.500000  0.000000  0.000000      4.000000
  0.250000  0.250000  0.000000      8.000000
  0.500000  0.250000  0.000000     16.000000
 -0.250000  0.250000  0.000000      4.000000
  0.500000  0.500000  0.000000      2.000000
  0.250000  0.250000  0.250000      2.000000
 -0.250000  0.250000  0.250000      4.000000
  0.500000  0.500000  0.250000      4.000000
 -0.250000  0.500000  0.250000      8.000000
 -0.250000 -0.250000  0.250000      2.000000
  0.500000  0.500000  0.500000      1.000000
 
 Following cartesian coordinates:
            Coordinates               Weight
  0.000000  0.000000  0.000000      1.000000
  0.000000  0.030171  0.030115      8.000000
  0.000000  0.060342  0.060231      4.000000
  0.030171  0.030171  0.060231      8.000000
  0.030171  0.060342  0.090346     16.000000
  0.030171 -0.030171  0.000000      4.000000
  0.060342  0.060342  0.120462      2.000000
  0.060342  0.060342  0.060231      2.000000
  0.060342  0.000000  0.000000      4.000000
  0.090514  0.090514  0.120462      4.000000
  0.090514  0.000000  0.030115      8.000000
  0.000000  0.000000 -0.060231      2.000000
  0.120685  0.120685  0.120462      1.000000
 


--------------------------------------------------------------------------------------------------------




 Dimension of arrays:
   k-points           NKPTS =     13   k-points in BZ     NKDIM =     13   number of bands    NBANDS=     80
   number of dos      NEDOS =    301   number of ions     NIONS =     14
   non local maximal  LDIM  =      8   non local SUM 2l+1 LMDIM =     32
   total plane-waves  NPLWV = 157464
   max r-space proj   IRMAX =  15586   max aug-charges    IRDMAX= 348817
   dimension x,y,z NGX =    54 NGY =   54 NGZ =   54
   dimension x,y,z NGXF=   108 NGYF=  108 NGZF=  108
   support grid    NGXF=   216 NGYF=  216 NGZF=  216
   ions per type =               4   2   8
   NGX,Y,Z   is equivalent  to a cutoff of  12.50, 12.50, 12.50 a.u.
   NGXF,Y,Z  is equivalent  to a cutoff of  25.01, 25.01, 25.01 a.u.

 SYSTEM =  unknown system                          
 POSCAR =  Yb4 Eu2 S8                              

 Startparameter for this run:
   NWRITE =      2    write-flag & timer
   PREC   = accura    normal or accurate (medium, high low for compatibility)
   ISTART =      0    job   : 0-new  1-cont  2-samecut
   ICHARG =      0    charge: 1-file 2-atom 10-const
   ISPIN  =      2    spin polarized calculation?
   LNONCOLLINEAR =      F non collinear calculations
   LSORBIT =      F    spin-orbit coupling
   INIWAV =      1    electr: 0-lowe 1-rand  2-diag
   LASPH  =      T    aspherical Exc in radial PAW
 Electronic Relaxation 1
   ENCUT  =  520.0 eV  38.22 Ry    6.18 a.u.  13.35 13.35 13.35*2*pi/ulx,y,z
   ENINI  =  520.0     initial cutoff
   ENAUG  =  549.6 eV  augmentation charge cutoff
   NELM   =   1000;   NELMIN=  2; NELMDL= -5     # of ELM steps 
   EDIFF  = 0.7E-03   stopping-criterion for ELM
   LREAL  =      T    real-space projection
   NLSPLINE    = F    spline interpolate recip. space projectors
   LCOMPAT=      F    compatible to vasp.4.4
   GGA_COMPAT  = T    GGA compatible to vasp.4.4-vasp.4.6
   LMAXPAW     = -100 max onsite density
   LMAXMIX     =    2 max onsite mixed and CHGCAR
   VOSKOWN=      0    Vosko Wilk Nusair interpolation
   ROPT   =   -0.00025  -0.00025  -0.00025
 Ionic relaxation
   EDIFFG = 0.7E-02   stopping-criterion for IOM
   NSW    =      0    number of steps for IOM
   NBLOCK =      1;   KBLOCK =      1    inner block; outer block 
   IBRION =     -1    ionic relax: 0-MD 1-quasi-New 2-CG
   NFREE  =      0    steps in history (QN), initial steepest desc. (CG)
   ISIF   =      3    stress and relaxation
   IWAVPR =     10    prediction:  0-non 1-charg 2-wave 3-comb
   ISYM   =      2    0-nonsym 1-usesym 2-fastsym
   LCORR  =      T    Harris-Foulkes like correction to forces

   POTIM  = 0.5000    time-step for ionic-motion
   TEIN   =    0.0    initial temperature
   TEBEG  =    0.0;   TEEND  =   0.0 temperature during run
   SMASS  =  -3.00    Nose mass-parameter (am)
   estimated Nose-frequenzy (Omega)   =  0.10E-29 period in steps = 0.13E+47 mass=  -0.118E-26a.u.
   SCALEE = 1.0000    scale energy and forces
   NPACO  =    256;   APACO  = 10.0  distance and # of slots for P.C.
   PSTRESS=    0.0 pullay stress

  Mass of Ions in am
   POMASS = 173.04151.97 32.07
  Ionic Valenz
   ZVAL   =   8.00 17.00  6.00
  Atomic Wigner-Seitz radii
   RWIGS  =  -1.00 -1.00 -1.00
  virtual crystal weights 
   VCA    =   1.00  1.00  1.00
   NELECT =     114.0000    total number of electrons
   NUPDOWN=      -1.0000    fix difference up-down

 DOS related values:
   EMIN   =  10.00;   EMAX   =-10.00  energy-range for DOS
   EFERMI =   0.00
   ISMEAR =    -5;   SIGMA  =   0.05  broadening in eV -4-tet -1-fermi 0-gaus

 Electronic relaxation 2 (details)
   IALGO  =     38    algorithm
   LDIAG  =      T    sub-space diagonalisation (order eigenvalues)
   LSUBROT=      F    optimize rotation matrix (better conditioning)
   TURBO    =      0    0=normal 1=particle mesh
   IRESTART =      0    0=no restart 2=restart with 2 vectors
   NREBOOT  =      0    no. of reboots
   NMIN     =      0    reboot dimension
   EREF     =   0.00    reference energy to select bands
   IMIX   =      4    mixing-type and parameters
     AMIX     =   0.40;   BMIX     =  1.00
     AMIX_MAG =   1.60;   BMIX_MAG =  1.00
     AMIN     =   0.10
     WC   =   100.;   INIMIX=   1;  MIXPRE=   1;  MAXMIX= -45

 Intra band minimization:
   WEIMIN = 0.0000     energy-eigenvalue tresh-hold
   EBREAK =  0.22E-05  absolut break condition
   DEPER  =   0.30     relativ break condition  

   TIME   =   0.40     timestep for ELM

  volume/ion in A,a.u.               =      20.36       137.37
  Fermi-wavevector in a.u.,A,eV,Ry     =   1.206253  2.279488 19.797116  1.455047
  Thomas-Fermi vector in A             =   2.341926
 
 Write flags
   LWAVE        =      F    write WAVECAR
   LDOWNSAMPLE  =      F    k-point downsampling of WAVECAR
   LCHARG       =      T    write CHGCAR
   LVTOT        =      F    write LOCPOT, total local potential
   LVHAR        =      T    write LOCPOT, Hartree potential only
   LELF         =      T    write electronic localiz. function (ELF)
   LORBIT       =     11    0 simple, 1 ext, 2 COOP (PROOUT), +10 PAW based schemes


 Dipole corrections
   LMONO  =      F    monopole corrections only (constant potential shift)
   LDIPOL =      F    correct potential (dipole corrections)
   IDIPOL =      0    1-x, 2-y, 3-z, 4-all directions 
   EPSILON=  1.0000000 bulk dielectric constant

 Exchange correlation treatment:
   GGA     =    --    GGA type
   LEXCH   =     8    internal setting for exchange type
   LIBXC   =     F    Libxc                    
   VOSKOWN =     0    Vosko Wilk Nusair interpolation
   LHFCALC =     F    Hartree Fock is set to
   LHFONE  =     F    Hartree Fock one center treatment
   AEXX    =    0.0000 exact exchange contribution

 Linear response parameters
   LEPSILON=     F    determine dielectric tensor
   LRPA    =     F    only Hartree local field effects (RPA)
   LNABLA  =     F    use nabla operator in PAW spheres
   LVEL    =     F    velocity operator in full k-point grid
   CSHIFT  =0.1000    complex shift for real part using Kramers Kronig
   OMEGAMAX=  -1.0    maximum frequency
   DEG_THRESHOLD= 0.2000000E-02 threshold for treating states as degnerate
   RTIME   =   -0.100 relaxation time in fs
  (WPLASMAI=    0.000 imaginary part of plasma frequency in eV, 0.658/RTIME)
   DFIELD  = 0.0000000 0.0000000 0.0000000 field for delta impulse in time
 
  Optional k-point grid parameters
   LKPOINTS_OPT  =     F    use optional k-point grid
   KPOINTS_OPT_MODE=     1    mode for optional k-point grid
 
 Orbital magnetization related:
   ORBITALMAG=     F  switch on orbital magnetization
   LCHIMAG   =     F  perturbation theory with respect to B field
   DQ        =  0.001000  dq finite difference perturbation B field
   LLRAUG    =     F  two centre corrections for induced B field



--------------------------------------------------------------------------------------------------------


 Static calculation
 charge density and potential will be updated during run
 spin polarized calculation
 Variant of blocked Davidson
 Davidson routine will perform the subspace rotation
 perform sub-space diagonalisation
    after iterative eigenvector-optimisation
 modified Broyden-mixing scheme, WC =      100.0
 initial mixing is a Kerker type mixing with AMIX =  0.4000 and BMIX =      1.0000
 Hartree-type preconditioning will be used
 using additional bands            23
 real space projection scheme for non local part
 use partial core corrections
 calculate Harris-corrections to forces 
   (improved forces if not selfconsistent)
 use gradient corrections 
 use of overlap-Matrix (Vanderbilt PP)
 Fermi weights with tetrahedron method with Bloechl corrections


--------------------------------------------------------------------------------------------------------


  energy-cutoff  :      520.00
  volume of cell :      284.98
      direct lattice vectors                 reciprocal lattice vectors
    -4.143017000  4.143017000  4.150691000     0.000000000  0.120684998  0.120461870
     4.143017000 -4.143017000  4.150691000     0.120684998  0.000000000  0.120461870
     4.143017000  4.143017000 -4.150691000     0.120684998  0.120684998  0.000000000

  length of vectors
     7.180349260  7.180349260  7.180349260     0.170516659  0.170516659  0.170674362


 
 k-points in units of 2pi/SCALE and weight: Kpoints from vasprun.xml                
   0.00000000  0.00000000  0.00000000       0.016
   0.00000000  0.03017125  0.03011547       0.125
   0.00000000  0.06034250  0.06023094       0.063
   0.03017125  0.03017125  0.06023094       0.125
   0.03017125  0.06034250  0.09034640       0.250
   0.03017125 -0.03017125  0.00000000       0.063
   0.06034250  0.06034250  0.12046187       0.031
   0.06034250  0.06034250  0.06023094       0.031
   0.06034250  0.00000000  0.00000000       0.063
   0.09051375  0.09051375  0.12046187       0.063
   0.09051375  0.00000000  0.03011547       0.125
   0.00000000  0.00000000 -0.06023094       0.031
   0.12068500  0.12068500  0.12046187       0.016
 
 k-points in reciprocal lattice and weights: Kpoints from vasprun.xml                
   0.00000000  0.00000000  0.00000000       0.016
   0.25000000  0.00000000  0.00000000       0.125
   0.50000000  0.00000000  0.00000000       0.063
   0.25000000  0.25000000  0.00000000       0.125
   0.50000000  0.25000000  0.00000000       0.250
  -0.25000000  0.25000000  0.00000000       0.063
   0.50000000  0.50000000  0.00000000       0.031
   0.25000000  0.25000000  0.25000000       0.031
  -0.25000000  0.25000000  0.25000000       0.063
   0.50000000  0.50000000  0.25000000       0.063
  -0.25000000  0.50000000  0.25000000       0.125
  -0.25000000 -0.25000000  0.25000000       0.031
   0.50000000  0.50000000  0.50000000       0.016
 
 position of ions in fractional coordinates (direct lattice) 
   0.37500000  0.00003600  0.12503600
   0.75003600  0.62500000  0.62503600
   0.87500000  0.24996400  0.87496400
   0.99996400  0.12500000  0.37496400
   0.25000000  0.75000000  0.50000000
   0.50000000  0.50000000  0.00000000
   0.62479200  0.87476900  0.41524000
   0.29047100  0.37523100  0.25002300
   0.62476900  0.87479200  0.91524000
   0.95955200  0.70952900  0.08476000
   0.45952900  0.20955200  0.58476000
   0.12523100  0.54047100  0.75002300
   0.79044800  0.37520800  0.24997700
   0.12520800  0.04044800  0.74997700
 
 position of ions in cartesian coordinates  (Angst):
  -1.03545595  2.07150850  1.03767275
   2.07150850  3.10756105  3.11301825
   1.03545595  6.21452550  1.03767275
  -2.07150850  5.17847295  3.11301825
   4.14301700  0.00000000  2.07534550
   0.00000000  0.00000000  4.15069100
   2.75600534  0.68468742  4.50068142
   1.38701166  0.68468742  1.72535508
   4.82770442  2.75600534  2.42533592
  -0.68468742  1.38701166  6.57602692
   1.38701166  3.45832958  0.34999042
   4.82770442  1.38701166 -0.34999042
  -0.68468742  2.75600534  3.80070058
   2.75600534  3.45832958 -2.42533592
 


--------------------------------------------------------------------------------------------------------


 k-point   1 :   0.0000 0.0000 0.0000  plane waves:    7723
 k-point   2 :   0.2500 0.0000 0.0000  plane waves:    7676
 k-point   3 :   0.5000 0.0000 0.0000  plane waves:    7654
 k-point   4 :   0.2500 0.2500 0.0000  plane waves:    7666
 k-point   5 :   0.5000 0.2500 0.0000  plane waves:    7665
 k-point   6 :  -0.2500 0.2500 0.0000  plane waves:    7682
 k-point   7 :   0.5000 0.5000 0.0000  plane waves:    7658
 k-point   8 :   0.2500 0.2500 0.2500  plane waves:    7656
 k-point   9 :  -0.2500 0.2500 0.2500  plane waves:    7683
 k-point  10 :   0.5000 0.5000 0.2500  plane waves:    7680
 k-point  11 :  -0.2500 0.5000 0.2500  plane waves:    7683
 k-point  12 :  -0.2500-0.2500 0.2500  plane waves:    7683
 k-point  13 :   0.5000 0.5000 0.5000  plane waves:    7712

 maximum and minimum number of plane-waves per node :      7723     7654

 maximum number of plane-waves:      7723
 maximum index in each direction: 
   IXMAX=   13   IYMAX=   13   IZMAX=   13
   IXMIN=  -13   IYMIN=  -13   IZMIN=  -13


 serial   3D FFT for wavefunctions
 parallel 3D FFT for charge:
    minimum data exchange during FFTs selected (reduces bandwidth)


 total amount of memory used by VASP MPI-rank0   206041. kBytes
=======================================================================

   base      :      30000. kBytes
   nonlr-proj:      20950. kBytes
   fftplans  :      46964. kBytes
   grid      :      40824. kBytes
   one-center:       1376. kBytes
   wavefun   :      65927. kBytes
 
     INWAV:  cpu time      0.0001: real time      0.0004
 Broyden mixing: mesh for mixing (old mesh)
   NGX = 27   NGY = 27   NGZ = 27
  (NGX  =108   NGY  =108   NGZ  =108)
  gives a total of  19683 points

 charge density for first step will be calculated from the start-wavefunctions


--------------------------------------------------------------------------------------------------------


 Maximum index for non-local projection operator         15069
 Maximum index for augmentation-charges         84598 (set IRDMAX)


--------------------------------------------------------------------------------------------------------


 initial charge from wavefunction
 First call to EWALD:  gamma=   0.269
 Maximum number of real-space cells 3x 3x 3
 Maximum number of reciprocal cells 3x 3x 3

    FEWALD:  cpu time      0.0014: real time      0.0014


--------------------------------------- Iteration      1(   1)  ---------------------------------------


    POTLOK:  cpu time      0.1613: real time      0.1944
    SETDIJ:  cpu time      2.0292: real time      2.0305
     EDDAV:  cpu time      3.3380: real time      3.3483
 BZINTS: Fermi energy:   16.243930;  114.000000 electrons
         Band energy:-0.415328E+04;  BLOECHL correction:   -0.481240
       DOS:  cpu time      0.0587: real time      0.0587
    --------------------------------------------
      LOOP:  cpu time      5.5871: real time      5.6319

 eigenvalue-minimisations  :  6992
 total energy-change (2. order) :-0.1549814E+04  (-0.7023503E+04)
 number of electron     114.0000000 magnetization      -0.0000000
 augmentation part       10.2432136 magnetization      -0.0465412

 Free energy of the ion-electron system (eV)
  ---------------------------------------------------
  alpha Z        PSCENC =       580.63057035
  Ewald energy   TEWEN  =     -7667.94800750
  -Hartree energ DENC   =      -221.62048798
  -exchange      EXHF   =         0.00000000
  -V(xc)+E(xc)   XCENC  =       159.45398591
  PAW double counting   =    411096.07717732  -411086.73368363
  entropy T*S    EENTRO =         0.00000000
  eigenvalues    EBANDS =     -4153.27975062
  atomic energy  EATOM  =      9743.60574178
  Solvation  Ediel_sol  =         0.00000000
  ---------------------------------------------------
  free energy    TOTEN  =     -1549.81445436 eV

  energy without entropy =    -1549.81445436  energy(sigma->0) =    -1549.81445436


--------------------------------------------------------------------------------------------------------




--------------------------------------- Iteration      1(   2)  ---------------------------------------


     EDDAV:  cpu time      2.4301: real time      2.4320
 BZINTS: Fermi energy:   -3.709719;  114.000000 electrons
         Band energy:-0.629804E+04;  BLOECHL correction:   -0.095118
       DOS:  cpu time      0.0472: real time      0.0472
    --------------------------------------------
      LOOP:  cpu time      2.4773: real time      2.4792

 eigenvalue-minimisations  :  4800
 total energy-change (2. order) :-0.2144765E+04  (-0.2033267E+04)
 number of electron     114.0000000 magnetization      -0.0000000
 augmentation part       10.2432136 magnetization      -0.0465412

 Free energy of the ion-electron system (eV)
  ---------------------------------------------------
  alpha Z        PSCENC =       580.63057035
  Ewald energy   TEWEN  =     -7667.94800750
  -Hartree energ DENC   =      -221.62048798
  -exchange      EXHF   =         0.00000000
  -V(xc)+E(xc)   XCENC  =       159.45398591
  PAW double counting   =    411096.07717732  -411086.73368363
  entropy T*S    EENTRO =         0.00000000
  eigenvalues    EBANDS =     -6298.04484316
  atomic energy  EATOM  =      9743.60574178
  Solvation  Ediel_sol  =         0.00000000
  ---------------------------------------------------
  free energy    TOTEN  =     -3694.57954690 eV

  energy without entropy =    -3694.57954690  energy(sigma->0) =    -3694.57954690


--------------------------------------------------------------------------------------------------------




--------------------------------------- Iteration      1(   3)  ---------------------------------------


     EDDAV:  cpu time      2.7418: real time      2.7440
 BZINTS: Fermi energy:   -9.574847;  114.000000 electrons
         Band energy:-0.670145E+04;  BLOECHL correction:   -0.021496
       DOS:  cpu time      0.0400: real time      0.0400
    --------------------------------------------
      LOOP:  cpu time      2.7817: real time      2.7840

 eigenvalue-minimisations  :  5584
 total energy-change (2. order) :-0.4034034E+03  (-0.3922200E+03)
 number of electron     114.0000000 magnetization      -0.0000000
 augmentation part       10.2432136 magnetization      -0.0465412

 Free energy of the ion-electron system (eV)
  ---------------------------------------------------
  alpha Z        PSCENC =       580.63057035
  Ewald energy   TEWEN  =     -7667.94800750
  -Hartree energ DENC   =      -221.62048798
  -exchange      EXHF   =         0.00000000
  -V(xc)+E(xc)   XCENC  =       159.45398591
  PAW double counting   =    411096.07717732  -411086.73368363
  entropy T*S    EENTRO =         0.00000000
  eigenvalues    EBANDS =     -6701.44827317
  atomic energy  EATOM  =      9743.60574178
  Solvation  Ediel_sol  =         0.00000000
  ---------------------------------------------------
  free energy    TOTEN  =     -4097.98297691 eV

  energy without entropy =    -4097.98297691  energy(sigma->0) =    -4097.98297691


--------------------------------------------------------------------------------------------------------




--------------------------------------- Iteration      1(   4)  ---------------------------------------


     EDDAV:  cpu time      3.2332: real time      3.2359
 BZINTS: Fermi energy:  -10.634263;  114.000000 electrons
         Band energy:-0.688081E+04;  BLOECHL correction:   -0.152255
       DOS:  cpu time      0.0497: real time      0.0499
    --------------------------------------------
      LOOP:  cpu time      3.2829: real time      3.2859

 eigenvalue-minimisations  :  6824
 total energy-change (2. order) :-0.1793576E+03  (-0.1540952E+03)
 number of electron     114.0000000 magnetization      -0.0000000
 augmentation part       10.2432136 magnetization      -0.0465412

 Free energy of the ion-electron system (eV)
  ---------------------------------------------------
  alpha Z        PSCENC =       580.63057035
  Ewald energy   TEWEN  =     -7667.94800750
  -Hartree energ DENC   =      -221.62048798
  -exchange      EXHF   =         0.00000000
  -V(xc)+E(xc)   XCENC  =       159.45398591
  PAW double counting   =    411096.07717732  -411086.73368363
  entropy T*S    EENTRO =         0.00000000
  eigenvalues    EBANDS =     -6880.80585553
  atomic energy  EATOM  =      9743.60574178
  Solvation  Ediel_sol  =         0.00000000
  ---------------------------------------------------
  free energy    TOTEN  =     -4277.34055927 eV

  energy without entropy =    -4277.34055927  energy(sigma->0) =    -4277.34055927


--------------------------------------------------------------------------------------------------------




--------------------------------------- Iteration      1(   5)  ---------------------------------------


     EDDAV:  cpu time      2.9131: real time      2.9148
 BZINTS: Fermi energy:  -11.419471;  114.000000 electrons
         Band energy:-0.695493E+04;  BLOECHL correction:   -0.112507
       DOS:  cpu time      0.0455: real time      0.0455
    CHARGE:  cpu time      0.2385: real time      0.2386
    MIXING:  cpu time      0.0029: real time      0.0028
    --------------------------------------------
      LOOP:  cpu time      3.2000: real time      3.2017

 eigenvalue-minimisations  :  6040
 total energy-change (2. order) :-0.7412831E+02  (-0.7093186E+02)
 number of electron     114.0000001 magnetization      -0.0098411
 augmentation part        9.8800430 magnetization      -0.0083799

 Broyden mixing:
  rms(total) = 0.69264E+02    rms(broyden)= 0.69260E+02
  rms(prec ) = 0.93430E+02
  weight for this iteration     100.00

 Free energy of the ion-electron system (eV)
  ---------------------------------------------------
  alpha Z        PSCENC =       580.63057035
  Ewald energy   TEWEN  =     -7667.94800750
  -Hartree energ DENC   =      -221.62048798
  -exchange      EXHF   =         0.00000000
  -V(xc)+E(xc)   XCENC  =       159.45398591
  PAW double counting   =    411096.07717732  -411086.73368363
  entropy T*S    EENTRO =         0.00000000
  eigenvalues    EBANDS =     -6954.93416623
  atomic energy  EATOM  =      9743.60574178
  Solvation  Ediel_sol  =         0.00000000
  ---------------------------------------------------
  free energy    TOTEN  =     -4351.46886998 eV

  energy without entropy =    -4351.46886998  energy(sigma->0) =    -4351.46886998


--------------------------------------------------------------------------------------------------------




--------------------------------------- Iteration      1(   6)  ---------------------------------------


    POTLOK:  cpu time      0.0098: real time      0.0105
    SETDIJ:  cpu time      2.0201: real time      2.0209
     EDDAV:  cpu time      2.9963: real time      2.9985
 BZINTS: Fermi energy:   12.174445;  114.000000 electrons
         Band energy:-0.950193E+03;  BLOECHL correction:   -0.039701
       DOS:  cpu time      0.0496: real time      0.0496
    CHARGE:  cpu time      0.2345: real time      0.2347
    MIXING:  cpu time      0.0033: real time      0.0057
    --------------------------------------------
      LOOP:  cpu time      5.3136: real time      5.3199

 eigenvalue-minimisations  :  6256
 total energy-change (2. order) : 0.3418947E+04  (-0.2642722E+04)
 number of electron     114.0000001 magnetization      -0.0297331
 augmentation part        5.8412432 magnetization       0.0313639

 Broyden mixing:
  rms(total) = 0.25180E+02    rms(broyden)= 0.25174E+02
  rms(prec ) = 0.36768E+02
  weight for this iteration     100.00

 eigenvalues of (default mixing * dielectric matrix)
  average eigenvalue GAMMA=   0.8215
  0.8215

 Free energy of the ion-electron system (eV)
  ---------------------------------------------------
  alpha Z        PSCENC =       580.63057035
  Ewald energy   TEWEN  =     -7667.94800750
  -Hartree energ DENC   =     -2937.28417989
  -exchange      EXHF   =         0.00000000
  -V(xc)+E(xc)   XCENC  =       250.34893902
  PAW double counting   =    215979.92237500  -215931.60451637
  entropy T*S    EENTRO =         0.00000000
  eigenvalues    EBANDS =      -950.19283405
  atomic energy  EATOM  =      9743.60574178
  Solvation  Ediel_sol  =         0.00000000
  ---------------------------------------------------
  free energy    TOTEN  =      -932.52191167 eV

  energy without entropy =     -932.52191167  energy(sigma->0) =     -932.52191167


--------------------------------------------------------------------------------------------------------




--------------------------------------- Iteration      1(   7)  ---------------------------------------


    POTLOK:  cpu time      0.0095: real time      0.0099
    SETDIJ:  cpu time      2.0315: real time      2.0328
     EDDAV:  cpu time      3.1509: real time      3.1537
 BZINTS: Fermi energy:   -0.577026;  114.000000 electrons
         Band energy:-0.133284E+04;  BLOECHL correction:   -0.043116
       DOS:  cpu time      0.0497: real time      0.0497
    CHARGE:  cpu time      0.2346: real time      0.2347
    MIXING:  cpu time      0.0039: real time      0.0039
    --------------------------------------------
      LOOP:  cpu time      5.4802: real time      5.4847

 eigenvalue-minimisations  :  6584
 total energy-change (2. order) : 0.6944759E+03  (-0.3489022E+03)
 number of electron     114.0000002 magnetization      -0.0372625
 augmentation part       34.4303290 magnetization      -0.3232561

 Broyden mixing:
  rms(total) = 0.34428E+02    rms(broyden)= 0.34428E+02
  rms(prec ) = 0.38479E+02
  weight for this iteration     100.00

 eigenvalues of (default mixing * dielectric matrix)
  average eigenvalue GAMMA=   0.4757
  0.7773  0.1741

 Free energy of the ion-electron system (eV)
  ---------------------------------------------------
  alpha Z        PSCENC =       580.63057035
  Ewald energy   TEWEN  =     -7667.94800750
  -Hartree energ DENC   =     -1855.47268157
  -exchange      EXHF   =         0.00000000
  -V(xc)+E(xc)   XCENC  =       216.48101959
  PAW double counting   =    176418.49995576  -176341.00050343
  entropy T*S    EENTRO =         0.00000000
  eigenvalues    EBANDS =     -1332.84210582
  atomic energy  EATOM  =      9743.60574178
  Solvation  Ediel_sol  =         0.00000000
  ---------------------------------------------------
  free energy    TOTEN  =      -238.04601085 eV

  energy without entropy =     -238.04601085  energy(sigma->0) =     -238.04601085


--------------------------------------------------------------------------------------------------------




--------------------------------------- Iteration      1(   8)  ---------------------------------------


    POTLOK:  cpu time      0.0095: real time      0.0100
    SETDIJ:  cpu time      2.0240: real time      2.0250
     EDDAV:  cpu time      2.5368: real time      2.5382
 BZINTS: Fermi energy:   -2.125323;  114.000000 electrons
         Band energy:-0.146191E+04;  BLOECHL correction:   -0.021306
       DOS:  cpu time      0.0477: real time      0.0477
    CHARGE:  cpu time      0.2333: real time      0.2335
    MIXING:  cpu time      0.0032: real time      0.0032
    --------------------------------------------
      LOOP:  cpu time      4.8545: real time      4.8577

 eigenvalue-minimisations  :  5048
 total energy-change (2. order) :-0.1073531E+03  (-0.7843623E+02)
 number of electron     114.0000002 magnetization       0.2607530
 augmentation part       34.6818026 magnetization       0.3004819

 Broyden mixing:
  rms(total) = 0.38067E+02    rms(broyden)= 0.38067E+02
  rms(prec ) = 0.42102E+02
  weight for this iteration     100.00

 eigenvalues of (default mixing * dielectric matrix)
  average eigenvalue GAMMA=   0.4047
  0.7548  0.3473  0.1121

 Free energy of the ion-electron system (eV)
  ---------------------------------------------------
  alpha Z        PSCENC =       580.63057035
  Ewald energy   TEWEN  =     -7667.94800750
  -Hartree energ DENC   =     -1841.93572192
  -exchange      EXHF   =         0.00000000
  -V(xc)+E(xc)   XCENC  =       216.09398969
  PAW double counting   =    179336.89641927  -179250.83087138
  entropy T*S    EENTRO =         0.00000000
  eigenvalues    EBANDS =     -1461.91123315
  atomic energy  EATOM  =      9743.60574178
  Solvation  Ediel_sol  =         0.00000000
  ---------------------------------------------------
  free energy    TOTEN  =      -345.39911286 eV

  energy without entropy =     -345.39911286  energy(sigma->0) =     -345.39911286


--------------------------------------------------------------------------------------------------------




--------------------------------------- Iteration      1(   9)  ---------------------------------------


    POTLOK:  cpu time      0.0097: real time      0.0104
    SETDIJ:  cpu time      2.0276: real time      2.0284
     EDDAV:  cpu time      2.5842: real time      2.5855
 BZINTS: Fermi energy:   -2.608062;  114.000000 electrons
         Band energy:-0.179076E+04;  BLOECHL correction:   -0.032096
       DOS:  cpu time      0.0478: real time      0.0478
    CHARGE:  cpu time      0.2368: real time      0.2369
    MIXING:  cpu time      0.0032: real time      0.0032
    --------------------------------------------
      LOOP:  cpu time      4.9092: real time      4.9122

 eigenvalue-minimisations  :  5208
 total energy-change (2. order) :-0.1844800E+03  (-0.5637495E+01)
 number of electron     114.0000002 magnetization       0.3161878
 augmentation part       35.3140478 magnetization       0.0532157

 Broyden mixing:
  rms(total) = 0.41593E+02    rms(broyden)= 0.41593E+02
  rms(prec ) = 0.46820E+02
  weight for this iteration     100.00

 eigenvalues of (default mixing * dielectric matrix)
  average eigenvalue GAMMA=   0.4996
  0.7476  0.5215  0.5215  0.2078

 Free energy of the ion-electron system (eV)
  ---------------------------------------------------
  alpha Z        PSCENC =       580.63057035
  Ewald energy   TEWEN  =     -7667.94800750
  -Hartree energ DENC   =     -1713.69025530
  -exchange      EXHF   =         0.00000000
  -V(xc)+E(xc)   XCENC  =       212.84841459
  PAW double counting   =    215492.18420328  -215386.74779347
  entropy T*S    EENTRO =         0.00000000
  eigenvalues    EBANDS =     -1790.76201041
  atomic energy  EATOM  =      9743.60574178
  Solvation  Ediel_sol  =         0.00000000
  ---------------------------------------------------
  free energy    TOTEN  =      -529.87913668 eV

  energy without entropy =     -529.87913668  energy(sigma->0) =     -529.87913668


--------------------------------------------------------------------------------------------------------




--------------------------------------- Iteration      1(  10)  ---------------------------------------


    POTLOK:  cpu time      0.0097: real time      0.0105
    SETDIJ:  cpu time      2.0289: real time      2.0298
     EDDAV:  cpu time      2.6319: real time      2.6335
 BZINTS: Fermi energy:   -2.748496;  114.000000 electrons
         Band energy:-0.182218E+04;  BLOECHL correction:   -0.033809
       DOS:  cpu time      0.0467: real time      0.0467
    CHARGE:  cpu time      0.2434: real time      0.2436
    MIXING:  cpu time      0.0034: real time      0.0034
    --------------------------------------------
      LOOP:  cpu time      4.9642: real time      4.9675

 eigenvalue-minimisations  :  5312
 total energy-change (2. order) :-0.1875000E+02  (-0.1258236E+01)
 number of electron     114.0000002 magnetization      -0.5597206
 augmentation part       35.2887011 magnetization      -0.9158398

 Broyden mixing:
  rms(total) = 0.42421E+02    rms(broyden)= 0.42421E+02
  rms(prec ) = 0.47693E+02
  weight for this iteration     100.00

 eigenvalues of (default mixing * dielectric matrix)
  average eigenvalue GAMMA=   0.4299
  0.7459  0.4579  0.4579  0.1861  0.3017

 Free energy of the ion-electron system (eV)
  ---------------------------------------------------
  alpha Z        PSCENC =       580.63057035
  Ewald energy   TEWEN  =     -7667.94800750
  -Hartree energ DENC   =     -1703.05989507
  -exchange      EXHF   =         0.00000000
  -V(xc)+E(xc)   XCENC  =       212.47707038
  PAW double counting   =    221623.32128456  -221515.47755250
  entropy T*S    EENTRO =         0.00000000
  eigenvalues    EBANDS =     -1822.17834566
  atomic energy  EATOM  =      9743.60574178
  Solvation  Ediel_sol  =         0.00000000
  ---------------------------------------------------
  free energy    TOTEN  =      -548.62913365 eV

  energy without entropy =     -548.62913365  energy(sigma->0) =     -548.62913365


--------------------------------------------------------------------------------------------------------




--------------------------------------- Iteration      1(  11)  ---------------------------------------


    POTLOK:  cpu time      0.0098: real time      0.0103
    SETDIJ:  cpu time      2.0185: real time      2.0194
     EDDAV:  cpu time      2.5884: real time      2.5898
 BZINTS: Fermi energy:   -2.265166;  114.000000 electrons
         Band energy:-0.178339E+04;  BLOECHL correction:   -0.035380
       DOS:  cpu time      0.0475: real time      0.0476
    CHARGE:  cpu time      0.2356: real time      0.2361
    MIXING:  cpu time      0.0043: real time      0.0043
    --------------------------------------------
      LOOP:  cpu time      4.9041: real time      4.9075

 eigenvalue-minimisations  :  5216
 total energy-change (2. order) : 0.2558536E+02  (-0.3443505E+00)
 number of electron     114.0000002 magnetization     -15.5158272
 augmentation part       35.5031564 magnetization     -14.5043530

 Broyden mixing:
  rms(total) = 0.37482E+02    rms(broyden)= 0.37482E+02
  rms(prec ) = 0.43494E+02
  weight for this iteration     100.00

 eigenvalues of (default mixing * dielectric matrix)
  average eigenvalue GAMMA=   1.0542
  2.0896  2.0896  0.2014  0.7888  0.5779  0.5779

 Free energy of the ion-electron system (eV)
  ---------------------------------------------------
  alpha Z        PSCENC =       580.63057035
  Ewald energy   TEWEN  =     -7667.94800750
  -Hartree energ DENC   =     -1728.01174127
  -exchange      EXHF   =         0.00000000
  -V(xc)+E(xc)   XCENC  =       213.70690767
  PAW double counting   =    179093.87955274  -178975.52018053
  entropy T*S    EENTRO =         0.00000000
  eigenvalues    EBANDS =     -1783.38661738
  atomic energy  EATOM  =      9743.60574178
  Solvation  Ediel_sol  =         0.00000000
  ---------------------------------------------------
  free energy    TOTEN  =      -523.04377414 eV

  energy without entropy =     -523.04377414  energy(sigma->0) =     -523.04377414


--------------------------------------------------------------------------------------------------------




--------------------------------------- Iteration      1(  12)  ---------------------------------------


    POTLOK:  cpu time      0.0098: real time      0.0104
    SETDIJ:  cpu time      1.9241: real time      1.9251
     EDDAV:  cpu time      3.4538: real time      3.4559
 BZINTS: Fermi energy:    9.736490;  114.000000 electrons
         Band energy:-0.456928E+03;  BLOECHL correction:   -0.053279
       DOS:  cpu time      0.0474: real time      0.0474
    CHARGE:  cpu time      0.2332: real time      0.2333
    MIXING:  cpu time      0.0045: real time      0.0045
    --------------------------------------------
      LOOP:  cpu time      5.6729: real time      5.6766

 eigenvalue-minimisations  :  7392
 total energy-change (2. order) : 0.1750633E+03  (-0.5675482E+03)
 number of electron     114.0000001 magnetization     -12.3713760
 augmentation part       10.0270802 magnetization      -9.5831622

 Broyden mixing:
  rms(total) = 0.83287E+02    rms(broyden)= 0.83287E+02
  rms(prec ) = 0.85662E+02
  weight for this iteration     100.00

 eigenvalues of (default mixing * dielectric matrix)
  average eigenvalue GAMMA=   0.9729
  2.1492  2.1492  0.2015  0.6916  0.6916  0.5482  0.3790

 Free energy of the ion-electron system (eV)
  ---------------------------------------------------
  alpha Z        PSCENC =       580.63057035
  Ewald energy   TEWEN  =     -7667.94800750
  -Hartree energ DENC   =     -3074.26997470
  -exchange      EXHF   =         0.00000000
  -V(xc)+E(xc)   XCENC  =       294.09693870
  PAW double counting   =     76430.79651451   -76197.96382556
  entropy T*S    EENTRO =         0.00000000
  eigenvalues    EBANDS =      -456.92838881
  atomic energy  EATOM  =      9743.60574178
  Solvation  Ediel_sol  =         0.00000000
  ---------------------------------------------------
  free energy    TOTEN  =      -347.98043123 eV

  energy without entropy =     -347.98043123  energy(sigma->0) =     -347.98043123


--------------------------------------------------------------------------------------------------------




--------------------------------------- Iteration      1(  13)  ---------------------------------------


    POTLOK:  cpu time      0.0099: real time      0.0106
    SETDIJ:  cpu time      1.9347: real time      1.9357
     EDDAV:  cpu time      2.9925: real time      2.9943
 BZINTS: Fermi energy:    8.217000;  114.000000 electrons
         Band energy:-0.582394E+03;  BLOECHL correction:   -0.027639
       DOS:  cpu time      0.0510: real time      0.0510
    CHARGE:  cpu time      0.2353: real time      0.2356
    MIXING:  cpu time      0.0042: real time      0.0043
    --------------------------------------------
      LOOP:  cpu time      5.2277: real time      5.2316

 eigenvalue-minimisations  :  6296
 total energy-change (2. order) : 0.1874937E+03  (-0.3732761E+02)
 number of electron     114.0000001 magnetization     -11.1485108
 augmentation part        9.9910546 magnetization      -8.8711878

 Broyden mixing:
  rms(total) = 0.82012E+02    rms(broyden)= 0.82012E+02
  rms(prec ) = 0.84035E+02
  weight for this iteration     100.00

 eigenvalues of (default mixing * dielectric matrix)
  average eigenvalue GAMMA=   0.9322
  2.1979  2.1979  0.2015  0.7056  0.7056  0.4814  0.4839  0.4839

 Free energy of the ion-electron system (eV)
  ---------------------------------------------------
  alpha Z        PSCENC =       580.63057035
  Ewald energy   TEWEN  =     -7667.94800750
  -Hartree energ DENC   =     -2821.67860441
  -exchange      EXHF   =         0.00000000
  -V(xc)+E(xc)   XCENC  =       278.98316069
  PAW double counting   =     66555.18725070   -66246.87315220
  entropy T*S    EENTRO =         0.00000000
  eigenvalues    EBANDS =      -582.39373024
  atomic energy  EATOM  =      9743.60574178
  Solvation  Ediel_sol  =         0.00000000
  ---------------------------------------------------
  free energy    TOTEN  =      -160.48677083 eV

  energy without entropy =     -160.48677083  energy(sigma->0) =     -160.48677083


--------------------------------------------------------------------------------------------------------




--------------------------------------- Iteration      1(  14)  ---------------------------------------


    POTLOK:  cpu time      0.0097: real time      0.0102
    SETDIJ:  cpu time      1.9317: real time      1.9328
     EDDAV:  cpu time      3.3361: real time      3.3389
 BZINTS: Fermi energy:    3.959882;  114.000000 electrons
         Band energy:-0.858782E+03;  BLOECHL correction:   -0.048443
       DOS:  cpu time      0.0493: real time      0.0494
    CHARGE:  cpu time      0.2338: real time      0.2340
    MIXING:  cpu time      0.0041: real time      0.0041
    --------------------------------------------
      LOOP:  cpu time      5.5649: real time      5.5693

 eigenvalue-minimisations  :  7072
 total energy-change (2. order) :-0.4354133E+02  (-0.9507214E+02)
 number of electron     114.0000002 magnetization     -10.3986683
 augmentation part       35.9567512 magnetization      -4.4689562

 Broyden mixing:
  rms(total) = 0.10378E+03    rms(broyden)= 0.10378E+03
  rms(prec ) = 0.10473E+03
  weight for this iteration     100.00

 eigenvalues of (default mixing * dielectric matrix)
  average eigenvalue GAMMA=   0.8233
  2.0410  1.3911  0.2015  0.7825  0.7825  0.9363  0.4363  0.4363  0.4025

 Free energy of the ion-electron system (eV)
  ---------------------------------------------------
  alpha Z        PSCENC =       580.63057035
  Ewald energy   TEWEN  =     -7667.94800750
  -Hartree energ DENC   =     -2666.90578387
  -exchange      EXHF   =         0.00000000
  -V(xc)+E(xc)   XCENC  =       275.96075821
  PAW double counting   =     88300.91434056   -87911.50410939
  entropy T*S    EENTRO =         0.00000000
  eigenvalues    EBANDS =      -858.78160904
  atomic energy  EATOM  =      9743.60574178
  Solvation  Ediel_sol  =         0.00000000
  ---------------------------------------------------
  free energy    TOTEN  =      -204.02809890 eV

  energy without entropy =     -204.02809890  energy(sigma->0) =     -204.02809890


--------------------------------------------------------------------------------------------------------




--------------------------------------- Iteration      1(  15)  ---------------------------------------


    POTLOK:  cpu time      0.0096: real time      0.0100
    SETDIJ:  cpu time      1.8387: real time      1.8394
     EDDAV:  cpu time      3.3002: real time      3.3022
 BZINTS: Fermi energy:    8.566724;  114.000000 electrons
         Band energy:-0.434965E+03;  BLOECHL correction:   -0.049164
       DOS:  cpu time      0.0494: real time      0.0494
    CHARGE:  cpu time      0.2335: real time      0.2337
    MIXING:  cpu time      0.0051: real time      0.0051
    --------------------------------------------
      LOOP:  cpu time      5.4365: real time      5.4398

 eigenvalue-minimisations  :  6976
 total energy-change (2. order) :-0.1625322E+03  (-0.4444555E+03)
 number of electron     114.0000001 magnetization      -7.7763958
 augmentation part        9.4010120 magnetization      -6.0195622

 Broyden mixing:
  rms(total) = 0.95755E+02    rms(broyden)= 0.95755E+02
  rms(prec ) = 0.97960E+02
  weight for this iteration     100.00

 eigenvalues of (default mixing * dielectric matrix)
  average eigenvalue GAMMA=   0.8425
  2.1492  1.2714  1.2714  0.2015  1.0193  0.7419  0.5732  0.5732  0.3120  0.3120

 Free energy of the ion-electron system (eV)
  ---------------------------------------------------
  alpha Z        PSCENC =       580.63057035
  Ewald energy   TEWEN  =     -7667.94800750
  -Hartree energ DENC   =     -3206.44931299
  -exchange      EXHF   =         0.00000000
  -V(xc)+E(xc)   XCENC  =       301.03208284
  PAW double counting   =    105604.45367650  -105286.91989925
  entropy T*S    EENTRO =         0.00000000
  eigenvalues    EBANDS =      -434.96512359
  atomic energy  EATOM  =      9743.60574178
  Solvation  Ediel_sol  =         0.00000000
  ---------------------------------------------------
  free energy    TOTEN  =      -366.56027187 eV

  energy without entropy =     -366.56027187  energy(sigma->0) =     -366.56027187


--------------------------------------------------------------------------------------------------------




--------------------------------------- Iteration      1(  16)  ---------------------------------------


    POTLOK:  cpu time      0.0093: real time      0.0104
    SETDIJ:  cpu time      1.8492: real time      1.8501
     EDDAV:  cpu time      3.5256: real time      3.5351
 BZINTS: Fermi energy:    8.200431;  114.000000 electrons
         Band energy:-0.462732E+03;  BLOECHL correction:   -0.029791
       DOS:  cpu time      0.0528: real time      0.0530
    CHARGE:  cpu time      0.2501: real time      0.2510
    MIXING:  cpu time      0.0042: real time      0.0042
    --------------------------------------------
      LOOP:  cpu time      5.6912: real time      5.7037

 eigenvalue-minimisations  :  7480
 total energy-change (2. order) : 0.1777412E+02  (-0.1180976E+02)
 number of electron     114.0000001 magnetization      -7.0777442
 augmentation part        8.9540292 magnetization      -5.2947890

 Broyden mixing:
  rms(total) = 0.91877E+02    rms(broyden)= 0.91877E+02
  rms(prec ) = 0.94134E+02
  weight for this iteration     100.00

 eigenvalues of (default mixing * dielectric matrix)
  average eigenvalue GAMMA=   0.8282
  2.0954  1.4101  1.4101  1.0960  0.2015  0.7513  0.5530  0.5530  0.4621  0.2891
  0.2891

 Free energy of the ion-electron system (eV)
  ---------------------------------------------------
  alpha Z        PSCENC =       580.63057035
  Ewald energy   TEWEN  =     -7667.94800750
  -Hartree energ DENC   =     -3171.13800202
  -exchange      EXHF   =         0.00000000
  -V(xc)+E(xc)   XCENC  =       295.89373720
  PAW double counting   =     83983.25134679   -83650.34937446
  entropy T*S    EENTRO =         0.00000000
  eigenvalues    EBANDS =      -462.73216232
  atomic energy  EATOM  =      9743.60574178
  Solvation  Ediel_sol  =         0.00000000
  ---------------------------------------------------
  free energy    TOTEN  =      -348.78615017 eV

  energy without entropy =     -348.78615017  energy(sigma->0) =     -348.78615017


--------------------------------------------------------------------------------------------------------




--------------------------------------- Iteration      1(  17)  ---------------------------------------


    POTLOK:  cpu time      0.0096: real time      0.0104
    SETDIJ:  cpu time      2.0257: real time      2.0327
     EDDAV:  cpu time      3.4521: real time      3.4667
 BZINTS: Fermi energy:    8.213831;  114.000000 electrons
         Band energy:-0.468864E+03;  BLOECHL correction:   -0.025534
       DOS:  cpu time      0.0519: real time      0.0522
    CHARGE:  cpu time      0.2507: real time      0.2515
    MIXING:  cpu time      0.0044: real time      0.0045
    --------------------------------------------
      LOOP:  cpu time      5.7944: real time      5.8178

 eigenvalue-minimisations  :  7256
 total energy-change (2. order) : 0.5492225E+02  (-0.1409551E+01)
 number of electron     114.0000001 magnetization      -7.2490033
 augmentation part        8.4425220 magnetization      -5.3898537

 Broyden mixing:
  rms(total) = 0.97559E+02    rms(broyden)= 0.97559E+02
  rms(prec ) = 0.99614E+02
  weight for this iteration     100.00

 eigenvalues of (default mixing * dielectric matrix)
  average eigenvalue GAMMA=   0.8385
  2.0916  1.4841  1.4841  1.1807  0.2015  0.8068  0.6038  0.6038  0.4709  0.4709
  0.3321  0.3321

 Free energy of the ion-electron system (eV)
  ---------------------------------------------------
  alpha Z        PSCENC =       580.63057035
  Ewald energy   TEWEN  =     -7667.94800750
  -Hartree energ DENC   =     -3176.33640445
  -exchange      EXHF   =         0.00000000
  -V(xc)+E(xc)   XCENC  =       298.03774183
  PAW double counting   =     91333.34779600   -90936.33696206
  entropy T*S    EENTRO =         0.00000000
  eigenvalues    EBANDS =      -468.86438106
  atomic energy  EATOM  =      9743.60574178
  Solvation  Ediel_sol  =         0.00000000
  ---------------------------------------------------
  free energy    TOTEN  =      -293.86390512 eV

  energy without entropy =     -293.86390512  energy(sigma->0) =     -293.86390512


--------------------------------------------------------------------------------------------------------




--------------------------------------- Iteration      1(  18)  ---------------------------------------


    POTLOK:  cpu time      0.0095: real time      0.0102
    SETDIJ:  cpu time      1.9893: real time      1.9940
     EDDAV:  cpu time      2.9683: real time      2.9706
 BZINTS: Fermi energy:    8.242939;  114.000000 electrons
         Band energy:-0.486435E+03;  BLOECHL correction:   -0.025387
       DOS:  cpu time      0.0479: real time      0.0479
    CHARGE:  cpu time      0.2372: real time      0.2379
    MIXING:  cpu time      0.0042: real time      0.0042
    --------------------------------------------
      LOOP:  cpu time      5.2565: real time      5.2649

 eigenvalue-minimisations  :  6192
 total energy-change (2. order) : 0.7576650E+02  (-0.1407904E+01)
 number of electron     114.0000001 magnetization      -7.3985284
 augmentation part        8.0933997 magnetization      -5.4210894

 Broyden mixing:
  rms(total) = 0.10330E+03    rms(broyden)= 0.10330E+03
  rms(prec ) = 0.10511E+03
  weight for this iteration     100.00

 eigenvalues of (default mixing * dielectric matrix)
  average eigenvalue GAMMA=   0.8856
  2.1003  1.5311  1.5311  0.2015  0.8926  0.8926  1.0427  1.0427  0.5851  0.5851
  0.4833  0.3122  0.3122

 Free energy of the ion-electron system (eV)
  ---------------------------------------------------
  alpha Z        PSCENC =       580.63057035
  Ewald energy   TEWEN  =     -7667.94800750
  -Hartree energ DENC   =     -3144.92975333
  -exchange      EXHF   =         0.00000000
  -V(xc)+E(xc)   XCENC  =       300.36372597
  PAW double counting   =    103323.10457912  -102866.48946992
  entropy T*S    EENTRO =         0.00000000
  eigenvalues    EBANDS =      -486.43478663
  atomic energy  EATOM  =      9743.60574178
  Solvation  Ediel_sol  =         0.00000000
  ---------------------------------------------------
  free energy    TOTEN  =      -218.09740016 eV

  energy without entropy =     -218.09740016  energy(sigma->0) =     -218.09740016


--------------------------------------------------------------------------------------------------------




--------------------------------------- Iteration      1(  19)  ---------------------------------------


    POTLOK:  cpu time      0.0097: real time      0.0100
    SETDIJ:  cpu time      1.8224: real time      1.8231
     EDDAV:  cpu time      3.1469: real time      3.1487
 BZINTS: Fermi energy:    6.670031;  114.000000 electrons
         Band energy:-0.509945E+03;  BLOECHL correction:   -0.002280
       DOS:  cpu time      0.0545: real time      0.0546
    CHARGE:  cpu time      0.2367: real time      0.2369
    MIXING:  cpu time      0.0043: real time      0.0043
    --------------------------------------------
      LOOP:  cpu time      5.2745: real time      5.2776

 eigenvalue-minimisations  :  6608
 total energy-change (2. order) : 0.3867757E+02  (-0.8677459E+01)
 number of electron     114.0000001 magnetization      -7.0554709
 augmentation part       16.5994071 magnetization      -6.6158588

 Broyden mixing:
  rms(total) = 0.10849E+03    rms(broyden)= 0.10849E+03
  rms(prec ) = 0.10895E+03
  weight for this iteration     100.00

 eigenvalues of (default mixing * dielectric matrix)
  average eigenvalue GAMMA=   0.8237
  2.1470  1.5366  1.5366  0.2015  0.8947  0.8947  1.0194  1.0194  0.5803  0.5803
  0.4824  0.3123  0.3123  0.0137

 Free energy of the ion-electron system (eV)
  ---------------------------------------------------
  alpha Z        PSCENC =       580.63057035
  Ewald energy   TEWEN  =     -7667.94800750
  -Hartree energ DENC   =     -3120.93157109
  -exchange      EXHF   =         0.00000000
  -V(xc)+E(xc)   XCENC  =       302.25277418
  PAW double counting   =    110295.54880974  -109802.63270749
  entropy T*S    EENTRO =         0.00000000
  eigenvalues    EBANDS =      -509.94543814
  atomic energy  EATOM  =      9743.60574178
  Solvation  Ediel_sol  =         0.00000000
  ---------------------------------------------------
  free energy    TOTEN  =      -179.41982816 eV

[...]
  288          m_sumb_d                              0.000077                          2   4
  289        strnlr                                1.344676                            1   3
  290          rspher_all                            0.171795                          9   4
  291          phaser                                0.495976                        117   4
  292          rpro_isp                              0.672932                        117   4
  293            fftwav_mpi                            0.147761                     4680   5
  294              fftwav                                0.142034                   4680   6
  295                fft3d                                 0.031443                 4680   7
  296            rpromu_acc                            0.254535                     1170   5
  297          m_sumb_d                              0.000012                          1   4
  298        fft3d_mpi                             0.004216                           22   3
  299          fftbrc_mpi                            0.003470                         22   4
  300            fftbas_plan_mpi                       0.003462                       22   5
  301              map_forward                           0.001138                     20   6
  302                map_gather                            0.000222                   10   7
  303                m_alltoallv_z                         0.000128                   10   7
  304                map_scatter                           0.000629                   10   7
  305              map_backward                          0.001692                     24   6
  306                map_gather                            0.000292                   12   7
  307                m_alltoallv_z                         0.000126                   12   7
  308                map_scatter                           0.001094                   12   7
  309        m_sumb_d                              0.000034                            5   3
  310        forhar                                0.001874                            2   3
  311          m_sumb_d                              0.000043                          2   4
  312        strehar                               0.001650                            1   3
  313          m_sumb_d                              0.000035                          1   4
  314        chggra                                0.000837                            1   3
  315          fft3d_mpi                             0.000497                          3   4
  316            fftbrc_mpi                            0.000393                        3   5
  317              fftbas_plan_mpi                       0.000390                      3   6
  318                map_forward                           0.000208                    4   7
  319                  map_gather                            0.000046                  2   8
  320                  m_alltoallv_z                         0.000025                  2   8
  321                  map_scatter                           0.000106                  2   8
  322                map_backward                          0.000096                    2   7
  323                  map_gather                            0.000024                  1   8
  324                  m_alltoallv_z                         0.000011                  1   8
  325                  map_scatter                           0.000039                  1   8
  326          m_sumb_d                              0.000008                          2   4
  327          pothar                                0.000091                          1   4
  328            m_sumb_d                              0.000013                        1   5
  329        brmix                                 0.009510                            1   3
  330          m_sumb_d                              0.000040                          6   4
  331          brpre                                 0.000031                          2   4
  332          setg0                                 0.001166                          1   4
  333          broyd                                 0.006920                          1   4
  334            m_sumb_d                              0.000618                       49   5
  335            brget                                 0.001419                      219   5
  336            brsav                                 0.000299                       47   5
  337        m_bcast_d                             0.000022                            2   3
  338      potlok                                0.038224                              2   2
  339        fft3d_mpi                             0.024918                           36   3
  340          fftbrc_mpi                            0.021557                         36   4
  341            fftbas_plan_mpi                       0.021536                       36   5
  342              map_forward                           0.006243                     40   6
  343                map_gather                            0.002048                   24   7
  344                m_alltoallv_z                         0.002214                   24   7
  345                map_scatter                           0.001778                   24   7
  346              map_backward                          0.005152                     32   6
  347                map_gather                            0.001735                   16   7
  348                m_alltoallv_z                         0.001732                   16   7
  349                map_scatter                           0.001490                   16   7
  350              dfftw_execute                         0.008560                     30   6
  351        m_sumb_d                              0.000022                            5   3
  352        pothar                                0.001573                            2   3
  353          m_sumb_d                              0.000104                          2   4
  354        m_bcast_d                             0.002615                            4   3
  355      potlok_metagga                        0.000000                              1   2
  356      set_dd_magatom                        0.000005                              1   2
  357      set_dd_paw                            1.879552                              1   2
  358        m_sumb_d                              0.944891                            7   3
  359      augmentation_charge                   0.156962                              1   2
  360        fft3d_mpi                             0.056000                            2   3
  361          fftbrc_mpi                            0.050517                          2   4
  362            fftbas_plan_mpi                       0.050515                        2   5
  363              dfftw_execute                         0.034970                      6   6
  364              map_backward                          0.015244                      4   6
  365                map_gather                            0.004336                    2   7
  366                m_alltoallv_z                         0.005976                    2   7
  367                map_scatter                           0.004922                    2   7
  368      fftwav_mpi                            1.694140                           1560   2
  369        fftwav                                1.692162                         1560   3
  370          fft3d                                 1.568874                       1560   4
  371      densta                                1.132866                              1   2
 
 Flat profile
 ============
 
             routine name                   CPU           calls
 ---------------------------------------------------------------
 m_sumb_d                              241.971551      588007
 set_dd_paw                            163.033666         180
 raccmu_                               111.575315      189476
 eddav                                  98.504948         182
 lapack                                 89.041739      189476
 redis_pw                               41.576155     1051732
 phaser                                 20.220786        4901
 setdij_                                19.470213         206
 m_alltoall_d                           19.155477     2749904
 augmentation_charge                    18.076082         180
 dfftw_execute                          15.583214        4764
 total_time                             12.442068           1
 init_acc                               11.699084           1
 fft3d                                  10.285922     1119307
 densta                                  9.762808         183
 eccp                                    9.511891       94640
 redis_proj                              8.963649     1336070
 fftwav                                  7.078009      740355
 orth1                                   6.121431      568506
 racc0mu_acc                             5.579210      189476
 overl                                   5.552315      663290
 w1_copy                                 5.472872     1136856
 hamiltmu                                5.282803      189476
 rpromu_acc                              4.498219      143846
 soft_charge                             4.435089         179
 m_bcast_z                               4.213047      191556
 ggemm                                   3.740936      236796
 setup_precond                           3.431799       94640
 m_bcast_d                               3.294227      379317
 m_alltoallv_z                           3.079161        7005
 overl_mu                                2.932406      189476
 map_scatter                             2.702612        7005
 fft3d_mpi                               2.511374      385219
 acc_init_cublas                         2.427579           1
 pw_charge                               2.169943       68771
 set_charge                              2.146055         179
 map_gather                              1.851820        7005
 vhamil                                  1.758776      378952
 kinhamil                                1.724581      378952
 fftext_mpi                              1.629522      378952
 apply_precond                           1.540072      284312
 depsum                                  1.514485         179
 newband                                 1.475017      194208
 fftwav_mpi                              1.001922      740355
 broyd                                   0.795691         178
 acc_init_cusolver                       0.791073           1
 potlok                                  0.776966         180
 rpro_isp                                0.376522         169
 brmix                                   0.344893         178
 elmin                                   0.338085           1
 fftbas_plan_mpi                         0.328707        6267
 rspher_all                              0.255479          14
 brget                                   0.244973       37620
 setg0                                   0.201878         180
 lincom                                  0.169888        4758
 w1_projall                              0.145305      142156
 acc_cufft_makeplan                      0.117998          19
 sphpro_fast                             0.067822           2
 brsav                                   0.066940       10657
 proall                                  0.052531           1
 map_forward                             0.038497        5920
 truncate_high_frequency_w1              0.037613      473592
 map_backward                            0.037465        6614
 fft_gq                                  0.017626         179
 orthch                                  0.015794           1
 pothar                                  0.015784         181
 force_and_stress                        0.013606           1
 choleski                                0.008489          26
 stufak                                  0.007674           1
 brpre                                   0.006390         356
 inisym                                  0.004770           1
 strnlr                                  0.003961           1
 fftbrc_mpi                              0.003690        6267
 strelo                                  0.002090           1
 forhar                                  0.001831           2
 strehar                                 0.001615           1
 fornlr                                  0.001388           1
 forloc                                  0.000983           1
 set_dd_magatom                          0.000818         180
 vectorpot                               0.000772         179
 strkin                                  0.000543           1
 rsp                                     0.000339           1
 fewald                                  0.000337           1
 chggra                                  0.000241           1
 brgrid                                  0.000216           1
 fordep                                  0.000071           1
 posmap                                  0.000033           2
 crpa_reader                             0.000029           1
 rcp                                     0.000025           1
 potlok_metagga                          0.000020         179
 acc_cufft_makeplans                     0.000011           3
 rotate_active_occupied_orbital          0.000001           1
 redis_pw_over_bands                     0.000000           1
 ---------------------------------------------------------------
  summed up times     995.3373210430145     
 
 Accumulative profile
 ====================
 
             routine name                   CPU           calls
 ---------------------------------------------------------------
 total_time                            995.337321           1
 elmin                                 952.820274           1
 eddav                                 545.200060         182
 set_dd_paw                            328.303485         180
 m_sumb_d                              241.971551      588007
 hamiltmu                              133.303807      189476
 raccmu_                               120.086930      189476
 lapack                                 89.041739      189476
 redis_pw                               51.065355     1051732
 set_charge                             42.518393         179
 setdij_                                33.465419         206
 fft3d_mpi                              28.844669      385219
 augmentation_charge                    28.544987         180
 fftbrc_mpi                             23.625166        6267
 fftbas_plan_mpi                        23.621476        6267
 newband                                21.807195      194208
 phaser                                 20.220786        4901
 m_alltoall_d                           19.155477     2749904
 redis_proj                             18.629926     1336070
 fftwav_mpi                             15.657723      740355
 dfftw_execute                          15.583214        4764
 fftwav                                 14.655802      740355
 init_acc                               11.699084           1
 fft3d                                  10.285922     1119307
 soft_charge                            10.125733         179
 densta                                  9.762808         183
 eccp                                    9.511891       94640
 force_and_stress                        8.124885           1
 kinhamil                                6.175297      378952
 orth1                                   6.121431      568506
 racc0mu_acc                             5.579210      189476
 overl                                   5.552315      663290
 w1_copy                                 5.472872     1136856
 rpromu_acc                              4.498219      143846
 fftext_mpi                              4.450715      378952
 w1_projall                              4.300188      142156
 m_bcast_z                               4.213047      191556
 map_backward                            3.994480        6614
 ggemm                                   3.740936      236796
 map_forward                             3.715075        5920
 setup_precond                           3.431799       94640
 m_bcast_d                               3.294227      379317
 m_alltoallv_z                           3.079161        7005
 overl_mu                                2.932406      189476
 map_scatter                             2.702612        7005
 acc_init_cublas                         2.427579           1
 pw_charge                               2.169943       68771
 map_gather                              1.851820        7005
 potlok                                  1.802768         180
 vhamil                                  1.758776      378952
 brmix                                   1.741581         178
 depsum                                  1.549987         179
 apply_precond                           1.540072      284312
 strnlr                                  1.344676           1
 broyd                                   1.168898         178
 fordep                                  0.972850           1
 rpro_isp                                0.925534         169
 acc_init_cusolver                       0.791073           1
 fft_gq                                  0.465539         179
 fornlr                                  0.448875           1
 rspher_all                              0.255479          14
 orthch                                  0.254376           1
 brget                                   0.244973       37620
 setg0                                   0.201878         180
 lincom                                  0.169888        4758
 proall                                  0.135596           1
 acc_cufft_makeplans                     0.118009           3
 acc_cufft_makeplan                      0.117998          19
 sphpro_fast                             0.070456           2
 brsav                                   0.066940       10657
 truncate_high_frequency_w1              0.037613      473592
 pothar                                  0.017391         181
 choleski                                0.008489          26
 stufak                                  0.007674           1
 brpre                                   0.006390         356
 inisym                                  0.004803           1
 strelo                                  0.002167           1
 forhar                                  0.001874           2
 strehar                                 0.001650           1
 fewald                                  0.001361           1
 forloc                                  0.001024           1
 chggra                                  0.000837           1
 set_dd_magatom                          0.000818         180
 vectorpot                               0.000772         179
 strkin                                  0.000554           1
 rsp                                     0.000339           1
 brgrid                                  0.000216           1
 posmap                                  0.000033           2
 crpa_reader                             0.000029           1
 rcp                                     0.000025           1
 potlok_metagga                          0.000020         179
 rotate_active_occupied_orbital          0.000001           1
 redis_pw_over_bands                     0.000000           1
 ---------------------------------------------------------------
 
Profiling took   2.328882  1.155377  0.003237  0.003124 seconds
Profiling took   1.479199 seconds
