 vasp.6.3.2 27Jun22 (build Jul  3 2023 11:46:21) complex                         
 executed on    LinuxNV_CrayMPICH date 2024.04.21  23:00:31
 running on    4 total cores
 distrk:  each k-point on    4 cores,    1 groups
 distr:  one band on NCORE=   1 cores,    4 groups


--------------------------------------------------------------------------------------------------------


 INCAR:
   ALGO = Normal
   AMIX_MAG = 0.8
   BMIX = 0.001
   BMIX_MAG = 0.001
   EDIFF = 0.00085
   EFIELD_PEAD = 0.0 0.0 0.0
   ENCUT = 520.0
   IBRION = 2
   ICHARG = 1
   ISIF = 3
   ISMEAR = 0
   ISPIN = 2
   ISTART = 1
   ISYM = 0
   LCALCEPS = False
   LCALCPOL = False
   LEFG = False
   LORBIT = 11
   LPEAD = False
   LREAL = Auto
   LWAVE = False
   MAGMOM = 1*7.0 16*0.6
   NELM = 1000
   NELMDL = 6
   NSW = 99
   PREC = accurate
   SIGMA = 0.2

 POTCAR:    PAW_PBE Eu 23Dec2003                  
 POTCAR:    PAW_PBE Sb 06Sep2000                  
 POTCAR:    PAW_PBE Os_pv 20Jan2003               
 POTCAR:    PAW_PBE Eu 23Dec2003                  
   SHA256 =  ed303d27e7c5191953f9b15539336e6f36d9037c1d2e92e80c13d733697cb93d Eu/POTCAR             
   COPYR  = (c) Copyright 23Dec2003 Georg Kresse                                                    
   COPYR  = This file is part of the software VASP. Any use, copying, and all other rights are regul
   COPYR  = If you do not have a valid VASP license, you may not use, copy or distribute this file. 
   VRHFIN =Eu : [core=Kr4d]                                                                         
   LEXCH  = PE                                                                                      
   EATOM  =  2619.8085 eV,  192.5505 Ry                                                             
                                                                                                    
   TITEL  = PAW_PBE Eu 23Dec2003                                                                    
   LULTRA =        F    use ultrasoft PP ?                                                          
   IUNSCR =        1    unscreen: 0-lin 1-nonlin 2-no                                               
   RPACOR =    2.300    partial core radius                                                         
   POMASS =  151.965; ZVAL   =   17.000    mass and valenz                                          
   RCORE  =    2.800    outmost cutoff radius                                                       
   RWIGS  =    2.800; RWIGS  =    1.482    wigner-seitz radius (au A)                               
   ENMAX  =  249.668; ENMIN  =  187.251 eV                                                          
   RCLOC  =    2.308    cutoff for local pot                                                        
   LCOR   =        T    correct aug charges                                                         
   LPAW   =        T    paw PP                                                                      
   EAUG   =  549.628                                                                                
   DEXC   =    0.000                                                                                
   RMAX   =    2.870    core radius for proj-oper                                                   
   RAUG   =    1.300    factor for augmentation sphere                                              
   RDEP   =    2.887    radius for radial grids                                                     
   RDEPT  =    2.221    core radius for aug-charge                                                  
                                                                                                    
   Atomic configuration                                                                             
   14 entries                                                                                       
     n  l   j            E        occ.                                                              
     1  0  0.50    -48354.7667   2.0000                                                             
     2  0  0.50     -7939.6472   2.0000                                                             
     2  1  1.50     -7072.6637   6.0000                                                             
     3  0  0.50     -1747.1875   2.0000                                                             
     3  1  1.50     -1477.5221   6.0000                                                             
     3  2  2.50     -1117.4686  10.0000                                                             
     4  0  0.50      -346.8682   2.0000                                                             
     4  1  1.50      -258.1962   6.0000                                                             
     4  2  2.50      -134.7724  10.0000                                                             
     5  0  0.50       -44.6510   2.0000                                                             
     6  0  0.50        -3.6227   2.0000                                                             
     5  1  1.50       -23.7639   6.0000                                                             
     5  2  2.50        -1.3130   0.0000                                                             
     4  3  2.50        -2.7310   7.0000                                                             
   Description                                                                                      
     l       E           TYP  RCUT    TYP  RCUT                                                     
     0    -44.6510453     23  2.400                                                                 
     0     -3.6226685     23  2.400                                                                 
     1    -23.7638687     23  2.400                                                                 
     1     27.2116520     23  2.400                                                                 
     2     -1.3129622     23  2.500                                                                 
     2     13.6058260     23  2.500                                                                 
     3     -2.7309948     23  2.800                                                                 
     3     -3.4014565     23  2.800                                                                 
  local pseudopotential read in
  partial core-charges read in
  partial kinetic energy density read in
  atomic valenz-charges read in
  non local Contribution for L=            0  read in
    real space projection operators read in
  non local Contribution for L=            0  read in
    real space projection operators read in
  non local Contribution for L=            1  read in
    real space projection operators read in
  non local Contribution for L=            1  read in
    real space projection operators read in
  non local Contribution for L=            2  read in
    real space projection operators read in
  non local Contribution for L=            2  read in
    real space projection operators read in
  non local Contribution for L=            3  read in
    real space projection operators read in
  non local Contribution for L=            3  read in
    real space projection operators read in
    PAW grid and wavefunctions read in
 
   number of l-projection  operators is LMAX  =            8
   number of lm-projection operators is LMMAX =           32
 
 POTCAR:    PAW_PBE Sb 06Sep2000                  
   SHA256 =  8a1325a3afd8ca988779475cff04188eb880a428d1acb53275fe456fa3b784fc Sb/POTCAR             
   COPYR  = (c) Copyright 06Sep2000 Georg Kresse                                                    
   COPYR  = This file is part of the software VASP. Any use, copying, and all other rights are regul
   COPYR  = If you do not have a valid VASP license, you may not use, copy or distribute this file. 
   VRHFIN =Sb: s2p3                                                                                 
   LEXCH  = PE                                                                                      
   EATOM  =   149.9515 eV,   11.0211 Ry                                                             
                                                                                                    
   TITEL  = PAW_PBE Sb 06Sep2000                                                                    
   LULTRA =        F    use ultrasoft PP ?                                                          
   IUNSCR =        1    unscreen: 0-lin 1-nonlin 2-no                                               
   RPACOR =    2.200    partial core radius                                                         
   POMASS =  121.750; ZVAL   =    5.000    mass and valenz                                          
   RCORE  =    2.300    outmost cutoff radius                                                       
   RWIGS  =    2.980; RWIGS  =    1.577    wigner-seitz radius (au A)                               
   ENMAX  =  172.069; ENMIN  =  129.052 eV                                                          
   ICORE  =        3    local potential                                                             
   LCOR   =        T    correct aug charges                                                         
   LPAW   =        T    paw PP                                                                      
   EAUG   =  380.513                                                                                
   DEXC   =    0.000                                                                                
   RMAX   =    2.346    core radius for proj-oper                                                   
   RAUG   =    1.300    factor for augmentation sphere                                              
   RDEP   =    2.360    radius for radial grids                                                     
   RDEPT  =    2.192    core radius for aug-charge                                                  
                                                                                                    
   Atomic configuration                                                                             
   13 entries                                                                                       
     n  l   j            E        occ.                                                              
     1  0  0.50    -30298.2797   2.0000                                                             
     2  0  0.50     -4610.2252   2.0000                                                             
     2  1  1.50     -4138.3407   6.0000                                                             
     3  0  0.50      -903.8815   2.0000                                                             
     3  1  1.50      -750.1337   6.0000                                                             
     3  2  2.50      -515.7092  10.0000                                                             
     4  0  0.50      -148.8034   2.0000                                                             
     4  1  1.50      -101.7581   6.0000                                                             
     4  2  2.50       -33.5048  10.0000                                                             
     5  0  0.50       -12.8298   2.0000                                                             
     5  1  0.50        -4.8276   3.0000                                                             
     5  2  1.50        -4.0817   0.0000                                                             
     4  3  2.50        -4.0817   0.0000                                                             
   Description                                                                                      
     l       E           TYP  RCUT    TYP  RCUT                                                     
     0    -12.8297861     23  2.300                                                                 
     0     13.6058260     23  2.300                                                                 
     1     -4.8275512     23  2.300                                                                 
     1     -0.7245443     23  2.300                                                                 
     2     -4.0817478     23  2.300                                                                 
     3     -1.3605826     23  2.300                                                                 
  local pseudopotential read in
  partial core-charges read in
  partial kinetic energy density read in
  atomic valenz-charges read in
  non local Contribution for L=            0  read in
    real space projection operators read in
  non local Contribution for L=            0  read in
    real space projection operators read in
  non local Contribution for L=            1  read in
    real space projection operators read in
  non local Contribution for L=            1  read in
    real space projection operators read in
  non local Contribution for L=            2  read in
    real space projection operators read in
    PAW grid and wavefunctions read in
 
   number of l-projection  operators is LMAX  =            5
   number of lm-projection operators is LMMAX =           13
 
 POTCAR:    PAW_PBE Os_pv 20Jan2003               
   SHA256 =  df2e3ef880fc2502babe687ce20ec2e4b82fab5eb8dd3b5c0a23d3b7861e7a8b Os_pv/POTCAR          
   COPYR  = (c) Copyright 20Jan2003 Georg Kresse                                                    
   COPYR  = This file is part of the software VASP. Any use, copying, and all other rights are regul
   COPYR  = If you do not have a valid VASP license, you may not use, copy or distribute this file. 
   VRHFIN =Os: 5p6s5d                                                                               
   LEXCH  = PE                                                                                      
   EATOM  =  1780.0332 eV,  130.8288 Ry                                                             
                                                                                                    
   TITEL  = PAW_PBE Os_pv 20Jan2003                                                                 
   LULTRA =        F    use ultrasoft PP ?                                                          
   IUNSCR =        1    unscreen: 0-lin 1-nonlin 2-no                                               
   RPACOR =    2.250    partial core radius                                                         
   POMASS =  190.200; ZVAL   =   14.000    mass and valenz                                          
   RCORE  =    2.500    outmost cutoff radius                                                       
   RWIGS  =    2.670; RWIGS  =    1.413    wigner-seitz radius (au A)                               
   ENMAX  =  228.022; ENMIN  =  171.017 eV                                                          
   RCLOC  =    2.004    cutoff for local pot                                                        
   LCOR   =        T    correct aug charges                                                         
   LPAW   =        T    paw PP                                                                      
   EAUG   =  414.932                                                                                
   DEXC   =    0.000                                                                                
   RMAX   =    2.553    core radius for proj-oper                                                   
   RAUG   =    1.300    factor for augmentation sphere                                              
   RDEP   =    2.568    radius for radial grids                                                     
   RDEPT  =    2.116    core radius for aug-charge                                                  
                                                                                                    
   Atomic configuration                                                                             
   15 entries                                                                                       
     n  l   j            E        occ.                                                              
     1  0  0.50    -73844.2435   2.0000                                                             
     2  0  0.50    -12856.6891   2.0000                                                             
     2  1  1.50    -11191.7993   6.0000                                                             
     3  0  0.50     -2990.1421   2.0000                                                             
     3  1  1.50     -2501.5220   6.0000                                                             
     3  2  2.50     -1956.5817  10.0000                                                             
     4  0  0.50      -629.1606   2.0000                                                             
     4  1  1.50      -468.9548   6.0000                                                             
     4  2  2.50      -270.2868  10.0000                                                             
     4  3  3.50       -49.5699  14.0000                                                             
     5  0  0.50       -89.1522   2.0000                                                             
     5  1  1.50       -48.6063   6.0000                                                             
     5  2  2.50        -4.7056   7.0000                                                             
     6  0  0.50        -5.4289   1.0000                                                             
     5  3  2.50        -6.8029   0.0000                                                             
   Description                                                                                      
     l       E           TYP  RCUT    TYP  RCUT                                                     
     1    -48.6062987     23  2.500                                                                 
     1     -6.8029130     23  2.500                                                                 
     2     -4.7055610     23  2.500                                                                 
     2     -6.0661436     23  2.500                                                                 
     0     -5.4288634     23  2.500                                                                 
     0      3.7338101     23  2.500                                                                 
  local pseudopotential read in
  partial core-charges read in
  partial kinetic energy density read in
  atomic valenz-charges read in
  non local Contribution for L=            1  read in
    real space projection operators read in
  non local Contribution for L=            1  read in
    real space projection operators read in
  non local Contribution for L=            2  read in
    real space projection operators read in
  non local Contribution for L=            2  read in
    real space projection operators read in
  non local Contribution for L=            0  read in
    real space projection operators read in
  non local Contribution for L=            0  read in
    real space projection operators read in
    PAW grid and wavefunctions read in
 
   number of l-projection  operators is LMAX  =            6
   number of lm-projection operators is LMMAX =           18
 
 Optimization of the real space projectors (new method)

 maximal supplied QI-value         = 13.42
 optimisation between [QCUT,QGAM] = [ 11.67, 23.35] = [ 38.16,152.62] Ry 
 Optimized for a Real-space Cutoff    1.63 Angstroem

   l    n(q)    QCUT    max X(q) W(low)/X(q) W(high)/X(q)  e(spline) 
   0     11    11.673    10.400    0.14E-04    0.18E-05    0.24E-07
   0     11    11.673    10.768    0.21E-04    0.32E-05    0.49E-07
   1     11    11.673     4.094    0.40E-05    0.13E-04    0.93E-07
   1     11    11.673     4.009    0.11E-04    0.46E-04    0.33E-06
   2     10    11.673    29.030    0.79E-04    0.60E-04    0.70E-06
   2     10    11.673    19.941    0.80E-04    0.60E-04    0.71E-06
   3     10    11.673    88.889    0.23E-03    0.29E-03    0.30E-06
   3     10    11.673    76.102    0.23E-03    0.30E-03    0.30E-06
 Optimization of the real space projectors (new method)

 maximal supplied QI-value         = 16.25
 optimisation between [QCUT,QGAM] = [ 11.54, 23.24] = [ 37.28,151.24] Ry 
 Optimized for a Real-space Cutoff    1.36 Angstroem

   l    n(q)    QCUT    max X(q) W(low)/X(q) W(high)/X(q)  e(spline) 
   0      9    11.539    19.000    0.40E-04    0.50E-04    0.84E-07
   0      9    11.539     9.057    0.48E-04    0.60E-04    0.10E-06
   1      9    11.539   125.345    0.24E-03    0.13E-04    0.15E-06
   1      9    11.539    79.963    0.24E-03    0.12E-04    0.14E-06
   2      9    11.539     6.963    0.31E-04    0.10E-03    0.57E-07
 Optimization of the real space projectors (new method)

 maximal supplied QI-value         = 15.12
 optimisation between [QCUT,QGAM] = [ 11.64, 23.28] = [ 37.95,151.78] Ry 
 Optimized for a Real-space Cutoff    1.58 Angstroem

   l    n(q)    QCUT    max X(q) W(low)/X(q) W(high)/X(q)  e(spline) 
   1     11    11.641     4.891    0.34E-04    0.44E-05    0.10E-06
   1     11    11.641     5.413    0.55E-04    0.39E-05    0.21E-06
   2     10    11.641   152.724    0.79E-04    0.37E-03    0.14E-05
   2     10    11.641   145.932    0.79E-04    0.37E-03    0.14E-05
   0     11    11.641    72.123    0.49E-04    0.38E-04    0.23E-06
   0     11    11.641    43.545    0.42E-04    0.35E-04    0.22E-06
  PAW_PBE Eu 23Dec2003                  :
 energy of atom  1       EATOM=-2619.8085
 kinetic energy error for atom=    0.0015 (will be added to EATOM!!)
  PAW_PBE Sb 06Sep2000                  :
 energy of atom  2       EATOM= -149.9515
 kinetic energy error for atom=    0.0005 (will be added to EATOM!!)
  PAW_PBE Os_pv 20Jan2003               :
 energy of atom  3       EATOM=-1780.0332
 kinetic energy error for atom=    0.0029 (will be added to EATOM!!)
 
 
 POSCAR: Eu1 Sb12 Os4
  positions in direct lattice
  No initial velocities read in
 exchange correlation table for  LEXCH =        8
   RHO(1)=    0.500       N(1)  =     2000
   RHO(2)=  100.500       N(2)  =     4000

 VTST: version 4.2, (08/11/21)

 CHAIN: initializing optimizer
 
 OPT: Using VASP Conjugate-Gradient optimizer
 CHAIN: Read ICHAIN             0
 
 POSCAR: Eu1 Sb12 Os4
  positions in direct lattice
  No initial velocities read in
 


--------------------------------------------------------------------------------------------------------


 ion  position               nearest neighbor table
   1  0.000  0.000  0.000-  12 3.65   7 3.65  10 3.65   5 3.65   2 3.65   9 3.65   6 3.65  13 3.65
                             3 3.65   4 3.65  11 3.66   8 3.66
   2  0.497  0.340  0.157-  14 2.75  17 2.75   3 3.07   4 3.13   1 3.65  13 3.69  11 3.70   7 3.70
                            10 3.70
   3  0.183  0.340  0.843-  15 2.74  16 2.75   2 3.07   9 3.13   1 3.65   8 3.69   6 3.70  10 3.70
                             7 3.70
   4  0.817  0.660  0.157-  15 2.74  16 2.75   9 3.07   2 3.13   1 3.65  11 3.69  13 3.70   5 3.70
                            12 3.70
   5  0.157  0.817  0.661-  17 2.75  15 2.75   7 3.06  12 3.13   1 3.65  11 3.70   6 3.70   4 3.70
                             9 3.70
   6  0.340  0.157  0.497-  15 2.75  14 2.75   8 3.06  11 3.13   1 3.65   9 3.69   3 3.70   7 3.70
                             5 3.70
   7  0.843  0.504  0.660-  16 2.75  14 2.75   5 3.06  10 3.13   1 3.65   6 3.70  11 3.70   2 3.70
                             3 3.70
   8  0.340  0.843  0.183-  16 2.75  17 2.75   6 3.06  13 3.13   1 3.66   3 3.69  10 3.70   9 3.70
                            12 3.70
   9  0.503  0.660  0.843-  14 2.75  17 2.75   4 3.07   3 3.13   1 3.65   6 3.69   8 3.70  12 3.70
                             5 3.70
  10  0.843  0.183  0.339-  17 2.75  15 2.75  12 3.06   7 3.13   1 3.65   8 3.70  13 3.70   3 3.70
                             2 3.70
  11  0.660  0.157  0.817-  16 2.75  17 2.75  13 3.06   6 3.13   1 3.66   4 3.69   5 3.70   2 3.70
                             7 3.70
  12  0.157  0.496  0.340-  16 2.75  14 2.75  10 3.06   5 3.13   1 3.65  13 3.70   8 3.70   9 3.70
                             4 3.70
  13  0.660  0.843  0.503-  15 2.75  14 2.75  11 3.06   8 3.13   1 3.65   2 3.69   4 3.70  12 3.70
                            10 3.70
  14  0.500  0.500  0.500-   2 2.75   9 2.75   6 2.75  13 2.75   7 2.75  12 2.75
  15  1.000  1.000  0.500-   4 2.74   3 2.74  13 2.75   6 2.75   5 2.75  10 2.75
  16  1.000  0.500  1.000-  11 2.75   8 2.75   4 2.75   3 2.75  12 2.75   7 2.75
  17  0.500  0.000  0.000-  10 2.75   5 2.75   2 2.75   9 2.75   8 2.75  11 2.75
 

IMPORTANT INFORMATION: All symmetrisations will be switched off!
NOSYMM: (Re-)initialisation of all symmetry stuff for point group C_1.


----------------------------------------------------------------------------------------

                                     Primitive cell                                     

  volume of cell :     465.5111

  direct lattice vectors                    reciprocal lattice vectors
     7.980207320 -0.001728610 -2.817446910     0.125336056  0.072543384  0.000029217
    -3.993937430  6.901620140 -2.824099330     0.000066345  0.144972407  0.000098971
     0.001370510 -0.005773600  8.456221020     0.041781672  0.072586041  0.118298921

  length of vectors
     8.462961594  8.459280926  8.456223102     0.144815988  0.144972456  0.144945080

  position of ions in fractional coordinates (direct lattice)
     0.000000380  0.000000460  0.000000270
     0.496519890  0.339688810  0.156778840
     0.182786520  0.339643890  0.843134380
     0.817213430  0.660356020  0.156865510
     0.157049320  0.817401090  0.660562950
     0.339606610  0.156781960  0.496552320
     0.842984660  0.503545130  0.660403420
     0.339577240  0.843021240  0.182817870
     0.503480120  0.660311160  0.843221200
     0.842950560  0.182598830  0.339436960
     0.660422750  0.156978680  0.817182100
     0.157015280  0.496454890  0.339596590
     0.660393390  0.843218050  0.503447700
     0.499999960  0.499999920  0.499999940
     0.999999930  0.999999930  0.499999950
     0.999999970  0.499999960  0.999999980
     0.500000000  1.000000000  0.000000020

  ion indices of the primitive-cell ions
   primitive index   ion index
                 1           1
                 2           2
                 3           3
                 4           4
                 5           5
                 6           6
                 7           7
                 8           8
                 9           9
                10          10
                11          11
                12          12
                13          13
                14          14
                15          15
                16          16
                17          17

----------------------------------------------------------------------------------------

 
 
 KPOINTS: Kpoints from vasprun.xml                

Automatic generation of k-mesh.
 Grid dimensions read from file:
 generate k-points for:    4    4    4

 Generating k-lattice:

  Cartesian coordinates                     Fractional coordinates (reciprocal lattice)
     0.031334014  0.018135846  0.000007304     0.250000000 -0.000000000  0.000000000
     0.000016586  0.036243102  0.000024743    -0.000000000  0.250000000  0.000000000
     0.010445418  0.018146510  0.029574730    -0.000000000 -0.000000000  0.250000000

  Length of vectors
     0.036203997  0.036243114  0.036236270

  Shift w.r.t. Gamma in fractional coordinates (k-lattice)
     0.500000000  0.500000000  0.500000000

 
 Subroutine IBZKPT returns following result:
 ===========================================
 
 Found     32 irreducible k-points:
 
 Following reciprocal coordinates:
            Coordinates               Weight
  0.125000  0.125000  0.125000      2.000000
  0.375000  0.125000  0.125000      2.000000
 -0.375000  0.125000  0.125000      2.000000
 -0.125000  0.125000  0.125000      2.000000
  0.125000  0.375000  0.125000      2.000000
  0.375000  0.375000  0.125000      2.000000
 -0.375000  0.375000  0.125000      2.000000
 -0.125000  0.375000  0.125000      2.000000
  0.125000 -0.375000  0.125000      2.000000
  0.375000 -0.375000  0.125000      2.000000
 -0.375000 -0.375000  0.125000      2.000000
 -0.125000 -0.375000  0.125000      2.000000
  0.125000 -0.125000  0.125000      2.000000
  0.375000 -0.125000  0.125000      2.000000
 -0.375000 -0.125000  0.125000      2.000000
 -0.125000 -0.125000  0.125000      2.000000
  0.125000  0.125000  0.375000      2.000000
  0.375000  0.125000  0.375000      2.000000
 -0.375000  0.125000  0.375000      2.000000
 -0.125000  0.125000  0.375000      2.000000
  0.125000  0.375000  0.375000      2.000000
  0.375000  0.375000  0.375000      2.000000
 -0.375000  0.375000  0.375000      2.000000
 -0.125000  0.375000  0.375000      2.000000
  0.125000 -0.375000  0.375000      2.000000
  0.375000 -0.375000  0.375000      2.000000
 -0.375000 -0.375000  0.375000      2.000000
 -0.125000 -0.375000  0.375000      2.000000
  0.125000 -0.125000  0.375000      2.000000
  0.375000 -0.125000  0.375000      2.000000
 -0.375000 -0.125000  0.375000      2.000000
 -0.125000 -0.125000  0.375000      2.000000
 
 Following cartesian coordinates:
            Coordinates               Weight
  0.020898  0.036263  0.014803      2.000000
  0.052232  0.054399  0.014811      2.000000
 -0.041770 -0.000009  0.014789      2.000000
 -0.010436  0.018127  0.014796      2.000000
  0.020915  0.072506  0.014828      2.000000
  0.052249  0.090642  0.014835      2.000000
 -0.041753  0.036234  0.014814      2.000000
 -0.010419  0.054370  0.014821      2.000000
  0.020865 -0.036223  0.014754      2.000000
  0.052199 -0.018088  0.014761      2.000000
 -0.041803 -0.072495  0.014739      2.000000
 -0.010469 -0.054359  0.014747      2.000000
  0.020881  0.000020  0.014779      2.000000
  0.052215  0.018155  0.014786      2.000000
 -0.041787 -0.036252  0.014764      2.000000
 -0.010453 -0.018116  0.014771      2.000000
  0.031343  0.054409  0.044378      2.000000
  0.062677  0.072545  0.044385      2.000000
 -0.031325  0.018138  0.044364      2.000000
  0.000009  0.036273  0.044371      2.000000
  0.031360  0.090652  0.044403      2.000000
  0.062694  0.108788  0.044410      2.000000
 -0.031308  0.054381  0.044388      2.000000
  0.000026  0.072516  0.044396      2.000000
  0.031310 -0.018077  0.044329      2.000000
  0.062644  0.000059  0.044336      2.000000
 -0.031358 -0.054349  0.044314      2.000000
 -0.000024 -0.036213  0.044321      2.000000
  0.031327  0.018166  0.044353      2.000000
  0.062661  0.036302  0.044361      2.000000
 -0.031341 -0.018106  0.044339      2.000000
 -0.000007  0.000030  0.044346      2.000000
 


--------------------------------------------------------------------------------------------------------




 Dimension of arrays:
   k-points           NKPTS =     32   k-points in BZ     NKDIM =     32   number of bands    NBANDS=     88
   number of dos      NEDOS =    301   number of ions     NIONS =     17
   non local maximal  LDIM  =      8   non local SUM 2l+1 LMDIM =     32
   total plane-waves  NPLWV = 262144
   max r-space proj   IRMAX =  10213   max aug-charges    IRDMAX=  32389
   dimension x,y,z NGX =    64 NGY =   64 NGZ =   64
   dimension x,y,z NGXF=   128 NGYF=  128 NGZF=  128
   support grid    NGXF=   128 NGYF=  128 NGZF=  128
   ions per type =               1  12   4
   NGX,Y,Z   is equivalent  to a cutoff of  12.57, 12.58, 12.58 a.u.
   NGXF,Y,Z  is equivalent  to a cutoff of  25.14, 25.16, 25.16 a.u.

 SYSTEM =  unknown system                          
 POSCAR =  Eu1 Sb12 Os4                            

 Startparameter for this run:
   NWRITE =      2    write-flag & timer
   PREC   = accura    normal or accurate (medium, high low for compatibility)
   ISTART =      0    job   : 0-new  1-cont  2-samecut
   ICHARG =      1    charge: 1-file 2-atom 10-const
   ISPIN  =      2    spin polarized calculation?
   LNONCOLLINEAR =      F non collinear calculations
   LSORBIT =      F    spin-orbit coupling
   INIWAV =      1    electr: 0-lowe 1-rand  2-diag
   LASPH  =      F    aspherical Exc in radial PAW
 Electronic Relaxation 1
   ENCUT  =  520.0 eV  38.22 Ry    6.18 a.u.  15.74 15.73 15.72*2*pi/ulx,y,z
   ENINI  =  520.0     initial cutoff
   ENAUG  =  549.6 eV  augmentation charge cutoff
   NELM   =   1000;   NELMIN=  2; NELMDL=  6     # of ELM steps 
   EDIFF  = 0.8E-03   stopping-criterion for ELM
   LREAL  =      T    real-space projection
   NLSPLINE    = F    spline interpolate recip. space projectors
   LCOMPAT=      F    compatible to vasp.4.4
   GGA_COMPAT  = T    GGA compatible to vasp.4.4-vasp.4.6
   LMAXPAW     = -100 max onsite density
   LMAXMIX     =    2 max onsite mixed and CHGCAR
   VOSKOWN=      0    Vosko Wilk Nusair interpolation
   ROPT   =   -0.00025  -0.00025  -0.00025
 Ionic relaxation
   EDIFFG = 0.8E-02   stopping-criterion for IOM
   NSW    =     99    number of steps for IOM
   NBLOCK =      1;   KBLOCK =     99    inner block; outer block 
   IBRION =      2    ionic relax: 0-MD 1-quasi-New 2-CG
   NFREE  =      1    steps in history (QN), initial steepest desc. (CG)
   ISIF   =      3    stress and relaxation
   IWAVPR =     11    prediction:  0-non 1-charg 2-wave 3-comb
   ISYM   =      0    0-nonsym 1-usesym 2-fastsym
   LCORR  =      T    Harris-Foulkes like correction to forces

   POTIM  = 0.5000    time-step for ionic-motion
   TEIN   =    0.0    initial temperature
   TEBEG  =    0.0;   TEEND  =   0.0 temperature during run
   SMASS  =  -3.00    Nose mass-parameter (am)
   estimated Nose-frequenzy (Omega)   =  0.10E-29 period in steps = 0.13E+47 mass=  -0.164E-26a.u.
   SCALEE = 1.0000    scale energy and forces
   NPACO  =    256;   APACO  = 10.0  distance and # of slots for P.C.
   PSTRESS=    0.0 pullay stress

  Mass of Ions in am
   POMASS = 151.97121.75190.20
  Ionic Valenz
   ZVAL   =  17.00  5.00 14.00
  Atomic Wigner-Seitz radii
   RWIGS  =  -1.00 -1.00 -1.00
  virtual crystal weights 
   VCA    =   1.00  1.00  1.00
   NELECT =     133.0000    total number of electrons
   NUPDOWN=      -1.0000    fix difference up-down

 DOS related values:
   EMIN   =  10.00;   EMAX   =-10.00  energy-range for DOS
   EFERMI =   0.00
   ISMEAR =     0;   SIGMA  =   0.20  broadening in eV -4-tet -1-fermi 0-gaus

 Electronic relaxation 2 (details)
   IALGO  =     38    algorithm
   LDIAG  =      T    sub-space diagonalisation (order eigenvalues)
   LSUBROT=      F    optimize rotation matrix (better conditioning)
   TURBO    =      0    0=normal 1=particle mesh
   IRESTART =      0    0=no restart 2=restart with 2 vectors
   NREBOOT  =      0    no. of reboots
   NMIN     =      0    reboot dimension
   EREF     =   0.00    reference energy to select bands
   IMIX   =      4    mixing-type and parameters
     AMIX     =   0.40;   BMIX     =  0.00
     AMIX_MAG =   0.80;   BMIX_MAG =  0.00
     AMIN     =   0.10
     WC   =   100.;   INIMIX=   1;  MIXPRE=   1;  MAXMIX= -45

 Intra band minimization:
   WEIMIN = 0.0010     energy-eigenvalue tresh-hold
   EBREAK =  0.24E-05  absolut break condition
   DEPER  =   0.30     relativ break condition  

   TIME   =   0.40     timestep for ELM

  volume/ion in A,a.u.               =      27.38       184.79
  Fermi-wavevector in a.u.,A,eV,Ry     =   1.078240  2.037578 15.818149  1.162601
  Thomas-Fermi vector in A             =   2.214173
 
 Write flags
   LWAVE        =      F    write WAVECAR
   LDOWNSAMPLE  =      F    k-point downsampling of WAVECAR
   LCHARG       =      T    write CHGCAR
   LVTOT        =      F    write LOCPOT, total local potential
   LVHAR        =      F    write LOCPOT, Hartree potential only
   LELF         =      F    write electronic localiz. function (ELF)
   LORBIT       =     11    0 simple, 1 ext, 2 COOP (PROOUT), +10 PAW based schemes


 Dipole corrections
   LMONO  =      F    monopole corrections only (constant potential shift)
   LDIPOL =      F    correct potential (dipole corrections)
   IDIPOL =      0    1-x, 2-y, 3-z, 4-all directions 
   EPSILON=  1.0000000 bulk dielectric constant

 Exchange correlation treatment:
   GGA     =    --    GGA type
   LEXCH   =     8    internal setting for exchange type
   LIBXC   =     F    Libxc                    
   VOSKOWN =     0    Vosko Wilk Nusair interpolation
   LHFCALC =     F    Hartree Fock is set to
   LHFONE  =     F    Hartree Fock one center treatment
   AEXX    =    0.0000 exact exchange contribution

 Linear response parameters
   LEPSILON=     F    determine dielectric tensor
   LRPA    =     F    only Hartree local field effects (RPA)
   LNABLA  =     F    use nabla operator in PAW spheres
   LVEL    =     F    velocity operator in full k-point grid
   CSHIFT  =0.1000    complex shift for real part using Kramers Kronig
   OMEGAMAX=  -1.0    maximum frequency
   DEG_THRESHOLD= 0.2000000E-02 threshold for treating states as degnerate
   RTIME   =   -0.100 relaxation time in fs
  (WPLASMAI=    0.000 imaginary part of plasma frequency in eV, 0.658/RTIME)
   DFIELD  = 0.0000000 0.0000000 0.0000000 field for delta impulse in time
 
  Optional k-point grid parameters
   LKPOINTS_OPT  =     F    use optional k-point grid
   KPOINTS_OPT_MODE=     1    mode for optional k-point grid
 
 Orbital magnetization related:
   ORBITALMAG=     F  switch on orbital magnetization
   LCHIMAG   =     F  perturbation theory with respect to B field
   DQ        =  0.001000  dq finite difference perturbation B field
   LLRAUG    =     F  two centre corrections for induced B field



--------------------------------------------------------------------------------------------------------


 conjugate gradient relaxation of ions
 charge density and potential will be updated during run
 spin polarized calculation
 Variant of blocked Davidson
 Davidson routine will perform the subspace rotation
 perform sub-space diagonalisation
    after iterative eigenvector-optimisation
 modified Broyden-mixing scheme, WC =      100.0
 initial mixing is a Kerker type mixing with AMIX =  0.4000 and BMIX =      0.0010
 Hartree-type preconditioning will be used
 using additional bands            21
 real space projection scheme for non local part
 use partial core corrections
 calculate Harris-corrections to forces 
   (improved forces if not selfconsistent)
 use gradient corrections 
 use of overlap-Matrix (Vanderbilt PP)
 Gauss-broadening in eV      SIGMA  =   0.20


--------------------------------------------------------------------------------------------------------


  energy-cutoff  :      520.00
  volume of cell :      465.51
      direct lattice vectors                 reciprocal lattice vectors
     7.980207320 -0.001728610 -2.817446910     0.125336056  0.072543384  0.000029217
    -3.993937430  6.901620140 -2.824099330     0.000066345  0.144972407  0.000098971
     0.001370510 -0.005773600  8.456221020     0.041781672  0.072586041  0.118298921

  length of vectors
     8.462961594  8.459280926  8.456223102     0.144815988  0.144972456  0.144945080


 
 k-points in units of 2pi/SCALE and weight: Kpoints from vasprun.xml                
   0.02089801  0.03626273  0.01480339       0.031
   0.05223202  0.05439857  0.01481069       0.031
  -0.04177002 -0.00000896  0.01478878       0.031
  -0.01043600  0.01812688  0.01479608       0.031
   0.02091460  0.07250583  0.01482813       0.031
   0.05224861  0.09064168  0.01483544       0.031
  -0.04175343  0.03623414  0.01481352       0.031
  -0.01041942  0.05436998  0.01482083       0.031
   0.02086484 -0.03622347  0.01475390       0.031
   0.05219885 -0.01808763  0.01476121       0.031
  -0.04180319 -0.07249517  0.01473929       0.031
  -0.01046918 -0.05435932  0.01474660       0.031
   0.02088142  0.00001963  0.01477865       0.031
   0.05221544  0.01815547  0.01478595       0.031
  -0.04178661 -0.03625206  0.01476404       0.031
  -0.01045259 -0.01811622  0.01477134       0.031
   0.03134343  0.05440924  0.04437812       0.031
   0.06267744  0.07254509  0.04438542       0.031
  -0.03132460  0.01813755  0.04436351       0.031
   0.00000941  0.03627339  0.04437081       0.031
   0.03136001  0.09065234  0.04440286       0.031
   0.06269403  0.10878819  0.04441017       0.031
  -0.03130801  0.05438065  0.04438825       0.031
   0.00002600  0.07251650  0.04439556       0.031
   0.03131025 -0.01807696  0.04432863       0.031
   0.06264427  0.00005888  0.04433594       0.031
  -0.03135777 -0.05434866  0.04431402       0.031
  -0.00002376 -0.03621281  0.04432133       0.031
   0.03132684  0.01816614  0.04435338       0.031
   0.06266085  0.03630198  0.04436068       0.031
  -0.03134119 -0.01810555  0.04433877       0.031
  -0.00000717  0.00003029  0.04434607       0.031
 
 k-points in reciprocal lattice and weights: Kpoints from vasprun.xml                
   0.12500000  0.12500000  0.12500000       0.031
   0.37500000  0.12500000  0.12500000       0.031
  -0.37500000  0.12500000  0.12500000       0.031
  -0.12500000  0.12500000  0.12500000       0.031
   0.12500000  0.37500000  0.12500000       0.031
   0.37500000  0.37500000  0.12500000       0.031
  -0.37500000  0.37500000  0.12500000       0.031
  -0.12500000  0.37500000  0.12500000       0.031
   0.12500000 -0.37500000  0.12500000       0.031
   0.37500000 -0.37500000  0.12500000       0.031
  -0.37500000 -0.37500000  0.12500000       0.031
  -0.12500000 -0.37500000  0.12500000       0.031
   0.12500000 -0.12500000  0.12500000       0.031
   0.37500000 -0.12500000  0.12500000       0.031
  -0.37500000 -0.12500000  0.12500000       0.031
  -0.12500000 -0.12500000  0.12500000       0.031
   0.12500000  0.12500000  0.37500000       0.031
   0.37500000  0.12500000  0.37500000       0.031
  -0.37500000  0.12500000  0.37500000       0.031
  -0.12500000  0.12500000  0.37500000       0.031
   0.12500000  0.37500000  0.37500000       0.031
   0.37500000  0.37500000  0.37500000       0.031
  -0.37500000  0.37500000  0.37500000       0.031
  -0.12500000  0.37500000  0.37500000       0.031
   0.12500000 -0.37500000  0.37500000       0.031
   0.37500000 -0.37500000  0.37500000       0.031
  -0.37500000 -0.37500000  0.37500000       0.031
  -0.12500000 -0.37500000  0.37500000       0.031
   0.12500000 -0.12500000  0.37500000       0.031
   0.37500000 -0.12500000  0.37500000       0.031
  -0.37500000 -0.12500000  0.37500000       0.031
  -0.12500000 -0.12500000  0.37500000       0.031
 
 position of ions in fractional coordinates (direct lattice) 
   0.00000038  0.00000046  0.00000027
   0.49651989  0.33968881  0.15677884
   0.18278652  0.33964389  0.84313438
   0.81721343  0.66035602  0.15686551
   0.15704932  0.81740109  0.66056295
   0.33960661  0.15678196  0.49655232
   0.84298466  0.50354513  0.66040342
   0.33957724  0.84302124  0.18281787
   0.50348012  0.66031116  0.84322120
   0.84295056  0.18259883  0.33943696
   0.66042275  0.15697868  0.81718210
   0.15701528  0.49645489  0.33959659
   0.66039339  0.84321805  0.50344770
   0.49999996  0.49999992  0.49999994
   0.99999993  0.99999993  0.49999995
   0.99999997  0.49999996  0.99999998
   0.50000000  0.00000000  0.00000002
 
 position of ions in cartesian coordinates  (Angst):
   0.00000120  0.00000317 -0.00000009
   2.60585067  2.34263966 -1.03247685
   0.10331340  2.33890922  5.65555127
   3.88432696  4.55520809 -2.84087702
  -2.01045737  5.63730652  2.83496631
   2.08463435  1.07859559  2.79936474
   4.71696970  3.47000711  1.78739129
  -0.65682675  5.81656985 -1.79156825
   1.38178992  4.55147806  3.84715202
   5.99809713  1.25681086 -0.02029173
   4.64446739  1.07754752  4.60624303
  -0.72932986  3.42411095  1.02728368
   1.90300601  5.81552241  0.01531018
   1.99382020  3.44705841  1.40733722
   3.98695487  6.89700425 -1.41343576
   5.98460904  3.44330758  4.22672447
   3.99010366 -0.00086431 -1.40872329
 


--------------------------------------------------------------------------------------------------------


 k-point   1 :   0.1250 0.1250 0.1250  plane waves:   12535
 k-point   2 :   0.3750 0.1250 0.1250  plane waves:   12544
 k-point   3 :  -0.3750 0.1250 0.1250  plane waves:   12542
 k-point   4 :  -0.1250 0.1250 0.1250  plane waves:   12524
 k-point   5 :   0.1250 0.3750 0.1250  plane waves:   12555
 k-point   6 :   0.3750 0.3750 0.1250  plane waves:   12554
 k-point   7 :  -0.3750 0.3750 0.1250  plane waves:   12535
 k-point   8 :  -0.1250 0.3750 0.1250  plane waves:   12529
 k-point   9 :   0.1250-0.3750 0.1250  plane waves:   12547
 k-point  10 :   0.3750-0.3750 0.1250  plane waves:   12541
 k-point  11 :  -0.3750-0.3750 0.1250  plane waves:   12512
 k-point  12 :  -0.1250-0.3750 0.1250  plane waves:   12530
 k-point  13 :   0.1250-0.1250 0.1250  plane waves:   12525
 k-point  14 :   0.3750-0.1250 0.1250  plane waves:   12533
 k-point  15 :  -0.3750-0.1250 0.1250  plane waves:   12531
 k-point  16 :  -0.1250-0.1250 0.1250  plane waves:   12520
 k-point  17 :   0.1250 0.1250 0.3750  plane waves:   12545
 k-point  18 :   0.3750 0.1250 0.3750  plane waves:   12554
 k-point  19 :  -0.3750 0.1250 0.3750  plane waves:   12531
 k-point  20 :  -0.1250 0.1250 0.3750  plane waves:   12530
 k-point  21 :   0.1250 0.3750 0.3750  plane waves:   12551
 k-point  22 :   0.3750 0.3750 0.3750  plane waves:   12504
 k-point  23 :  -0.3750 0.3750 0.3750  plane waves:   12542
 k-point  24 :  -0.1250 0.3750 0.3750  plane waves:   12519
 k-point  25 :   0.1250-0.3750 0.3750  plane waves:   12534
 k-point  26 :   0.3750-0.3750 0.3750  plane waves:   12540
 k-point  27 :  -0.3750-0.3750 0.3750  plane waves:   12548
 k-point  28 :  -0.1250-0.3750 0.3750  plane waves:   12533
 k-point  29 :   0.1250-0.1250 0.3750  plane waves:   12523
 k-point  30 :   0.3750-0.1250 0.3750  plane waves:   12516
 k-point  31 :  -0.3750-0.1250 0.3750  plane waves:   12538
 k-point  32 :  -0.1250-0.1250 0.3750  plane waves:   12544

 maximum and minimum number of plane-waves per node :     12555    12504

 maximum number of plane-waves:     12555
 maximum index in each direction: 
   IXMAX=   16   IYMAX=   16   IZMAX=   15
   IXMIN=  -16   IYMIN=  -16   IZMIN=  -16


 serial   3D FFT for wavefunctions
 parallel 3D FFT for charge:
    minimum data exchange during FFTs selected (reduces bandwidth)


 total amount of memory used by VASP MPI-rank0   426620. kBytes
=======================================================================

   base      :      30000. kBytes
   nonlr-proj:      19471. kBytes
   fftplans  :      18931. kBytes
   grid      :      67829. kBytes
   one-center:       1671. kBytes
   wavefun   :     288718. kBytes
 
     INWAV:  cpu time      0.0002: real time      0.0004
 Broyden mixing: mesh for mixing (old mesh)
   NGX = 31   NGY = 31   NGZ = 31
  (NGX  =128   NGY  =128   NGZ  =128)
  gives a total of  29791 points

 initial charge density was supplied:
 charge density of overlapping atoms calculated
 number of electron     133.0000000 magnetization      16.6000000
 keeping initial charge density in first step


--------------------------------------------------------------------------------------------------------


 Maximum index for non-local projection operator          9841
 Maximum index for augmentation-charges          7759 (set IRDMAX)


--------------------------------------------------------------------------------------------------------


 First call to EWALD:  gamma=   0.229
 Maximum number of real-space cells 3x 3x 3
 Maximum number of reciprocal cells 3x 3x 3

    FEWALD:  cpu time      0.0016: real time      0.0016


--------------------------------------- Iteration      1(   1)  ---------------------------------------


    POTLOK:  cpu time      0.1041: real time      0.1553
    SETDIJ:  cpu time      0.0333: real time      0.0333
     EDDAV:  cpu time      6.4741: real time      6.4846
       DOS:  cpu time      0.0021: real time      0.0022
    --------------------------------------------
      LOOP:  cpu time      6.6136: real time      6.6754

 eigenvalue-minimisations  : 14016
 total energy-change (2. order) : 0.1320829E+04  (-0.5402906E+04)
 number of electron     133.0000000 magnetization      16.6000000
 augmentation part      133.0000000 magnetization      16.6000000

 Free energy of the ion-electron system (eV)
  ---------------------------------------------------
  alpha Z        PSCENC =       288.52550067
  Ewald energy   TEWEN  =     -7938.27950541
  -Hartree energ DENC   =     -3605.39728842
  -exchange      EXHF   =         0.00000000
  -V(xc)+E(xc)   XCENC  =      -252.31234718
  PAW double counting   =     10119.21266289    -9472.91544162
  entropy T*S    EENTRO =        -0.10718204
  eigenvalues    EBANDS =       642.76236680
  atomic energy  EATOM  =     11539.34056372
  Solvation  Ediel_sol  =         0.00000000
  ---------------------------------------------------
  free energy    TOTEN  =      1320.82932940 eV

  energy without entropy =     1320.93651144  energy(sigma->0) =     1320.88292042


--------------------------------------------------------------------------------------------------------




--------------------------------------- Iteration      1(   2)  ---------------------------------------


     EDDAV:  cpu time      5.9779: real time      5.9841
       DOS:  cpu time      0.0018: real time      0.0018
    --------------------------------------------
      LOOP:  cpu time      5.9797: real time      5.9859

 eigenvalue-minimisations  : 12864
 total energy-change (2. order) :-0.1209369E+04  (-0.1116877E+04)
 number of electron     133.0000000 magnetization      16.6000000
 augmentation part      133.0000000 magnetization      16.6000000

 Free energy of the ion-electron system (eV)
  ---------------------------------------------------
  alpha Z        PSCENC =       288.52550067
  Ewald energy   TEWEN  =     -7938.27950541
  -Hartree energ DENC   =     -3605.39728842
  -exchange      EXHF   =         0.00000000
  -V(xc)+E(xc)   XCENC  =      -252.31234718
  PAW double counting   =     10119.21266289    -9472.91544162
  entropy T*S    EENTRO =        -0.13896747
  eigenvalues    EBANDS =      -566.57505799
  atomic energy  EATOM  =     11539.34056372
  Solvation  Ediel_sol  =         0.00000000
  ---------------------------------------------------
  free energy    TOTEN  =       111.46011918 eV

  energy without entropy =      111.59908665  energy(sigma->0) =      111.52960291


--------------------------------------------------------------------------------------------------------




--------------------------------------- Iteration      1(   3)  ---------------------------------------


     EDDAV:  cpu time      6.0844: real time      6.0923
       DOS:  cpu time      0.0020: real time      0.0020
    --------------------------------------------
      LOOP:  cpu time      6.0863: real time      6.0942

 eigenvalue-minimisations  : 13168
 total energy-change (2. order) :-0.1993244E+03  (-0.1846329E+03)
 number of electron     133.0000000 magnetization      16.6000000
 augmentation part      133.0000000 magnetization      16.6000000

 Free energy of the ion-electron system (eV)
  ---------------------------------------------------
  alpha Z        PSCENC =       288.52550067
  Ewald energy   TEWEN  =     -7938.27950541
  -Hartree energ DENC   =     -3605.39728842
  -exchange      EXHF   =         0.00000000
  -V(xc)+E(xc)   XCENC  =      -252.31234718
  PAW double counting   =     10119.21266289    -9472.91544162
  entropy T*S    EENTRO =        -0.32764899
  eigenvalues    EBANDS =      -765.71074341
  atomic energy  EATOM  =     11539.34056372
  Solvation  Ediel_sol  =         0.00000000
  ---------------------------------------------------
  free energy    TOTEN  =       -87.86424776 eV

  energy without entropy =      -87.53659877  energy(sigma->0) =      -87.70042326


--------------------------------------------------------------------------------------------------------




--------------------------------------- Iteration      1(   4)  ---------------------------------------


     EDDAV:  cpu time      6.9489: real time      6.9565
       DOS:  cpu time      0.0022: real time      0.0022
    --------------------------------------------
      LOOP:  cpu time      6.9511: real time      6.9587

 eigenvalue-minimisations  : 15440
 total energy-change (2. order) :-0.1902599E+02  (-0.1777087E+02)
 number of electron     133.0000000 magnetization      16.6000000
 augmentation part      133.0000000 magnetization      16.6000000

 Free energy of the ion-electron system (eV)
  ---------------------------------------------------
  alpha Z        PSCENC =       288.52550067
  Ewald energy   TEWEN  =     -7938.27950541
  -Hartree energ DENC   =     -3605.39728842
  -exchange      EXHF   =         0.00000000
  -V(xc)+E(xc)   XCENC  =      -252.31234718
  PAW double counting   =     10119.21266289    -9472.91544162
  entropy T*S    EENTRO =        -0.47406124
  eigenvalues    EBANDS =      -784.59032087
  atomic energy  EATOM  =     11539.34056372
  Solvation  Ediel_sol  =         0.00000000
  ---------------------------------------------------
  free energy    TOTEN  =      -106.89023747 eV

  energy without entropy =     -106.41617623  energy(sigma->0) =     -106.65320685


--------------------------------------------------------------------------------------------------------




--------------------------------------- Iteration      1(   5)  ---------------------------------------


     EDDAV:  cpu time      8.2681: real time      8.2748
       DOS:  cpu time      0.0020: real time      0.0020
    --------------------------------------------
      LOOP:  cpu time      8.2700: real time      8.2767

 eigenvalue-minimisations  : 19280
 total energy-change (2. order) :-0.1420504E+01  (-0.1380505E+01)
 number of electron     133.0000000 magnetization      16.6000000
 augmentation part      133.0000000 magnetization      16.6000000

 Free energy of the ion-electron system (eV)
  ---------------------------------------------------
  alpha Z        PSCENC =       288.52550067
  Ewald energy   TEWEN  =     -7938.27950541
  -Hartree energ DENC   =     -3605.39728842
  -exchange      EXHF   =         0.00000000
  -V(xc)+E(xc)   XCENC  =      -252.31234718
  PAW double counting   =     10119.21266289    -9472.91544162
  entropy T*S    EENTRO =        -0.46794513
  eigenvalues    EBANDS =      -786.01694139
  atomic energy  EATOM  =     11539.34056372
  Solvation  Ediel_sol  =         0.00000000
  ---------------------------------------------------
  free energy    TOTEN  =      -108.31074187 eV

  energy without entropy =     -107.84279674  energy(sigma->0) =     -108.07676931


--------------------------------------------------------------------------------------------------------




--------------------------------------- Iteration      1(   6)  ---------------------------------------


     EDDAV:  cpu time      7.6330: real time      7.6408
       DOS:  cpu time      0.0020: real time      0.0020
    CHARGE:  cpu time      0.2219: real time      0.2222
    MIXING:  cpu time      0.0051: real time      0.0051
    --------------------------------------------
      LOOP:  cpu time      7.8619: real time      7.8700

 eigenvalue-minimisations  : 17528
 total energy-change (2. order) :-0.5384113E-01  (-0.5325821E-01)
 number of electron     132.9999972 magnetization       6.6903998
 augmentation part       14.1408119 magnetization       4.2267109

 Broyden mixing:
  rms(total) = 0.43146E+01    rms(broyden)= 0.43146E+01
  rms(prec ) = 0.75090E+01
  weight for this iteration     100.00

 Free energy of the ion-electron system (eV)
  ---------------------------------------------------
  alpha Z        PSCENC =       288.52550067
  Ewald energy   TEWEN  =     -7938.27950541
  -Hartree energ DENC   =     -3605.39728842
  -exchange      EXHF   =         0.00000000
  -V(xc)+E(xc)   XCENC  =      -252.31234718
  PAW double counting   =     10119.21266289    -9472.91544162
  entropy T*S    EENTRO =        -0.46712614
  eigenvalues    EBANDS =      -786.07160151
  atomic energy  EATOM  =     11539.34056372
  Solvation  Ediel_sol  =         0.00000000
  ---------------------------------------------------
  free energy    TOTEN  =      -108.36458300 eV

  energy without entropy =     -107.89745687  energy(sigma->0) =     -108.13101993


--------------------------------------------------------------------------------------------------------




--------------------------------------- Iteration      1(   7)  ---------------------------------------


    POTLOK:  cpu time      0.0124: real time      0.0128
    SETDIJ:  cpu time      0.0335: real time      0.0335
     EDDAV:  cpu time      8.0944: real time      8.1014
       DOS:  cpu time      0.0018: real time      0.0018
    CHARGE:  cpu time      0.2108: real time      0.2109
    MIXING:  cpu time      0.0075: real time      0.0311
    --------------------------------------------
      LOOP:  cpu time      8.3604: real time      8.3916

 eigenvalue-minimisations  : 18576
 total energy-change (2. order) :-0.4516994E+03  (-0.1507163E+03)
 number of electron     132.9999972 magnetization       6.0802543
 augmentation part       22.6417906 magnetization       3.7119648

 Broyden mixing:
  rms(total) = 0.15558E+02    rms(broyden)= 0.15558E+02
  rms(prec ) = 0.26705E+02
  weight for this iteration     100.00

 eigenvalues of (default mixing * dielectric matrix)
  average eigenvalue GAMMA=   0.1401
  0.1401

 Free energy of the ion-electron system (eV)
  ---------------------------------------------------
  alpha Z        PSCENC =       288.52550067
  Ewald energy   TEWEN  =     -7938.27950541
  -Hartree energ DENC   =     -3293.54141145
  -exchange      EXHF   =         0.00000000
  -V(xc)+E(xc)   XCENC  =      -264.49704429
  PAW double counting   =     10676.09597802    -9973.87225581
  entropy T*S    EENTRO =        -0.36314292
  eigenvalues    EBANDS =     -1593.47268585
  atomic energy  EATOM  =     11539.34056372
  Solvation  Ediel_sol  =         0.00000000
  ---------------------------------------------------
  free energy    TOTEN  =      -560.06400333 eV

  energy without entropy =     -559.70086041  energy(sigma->0) =     -559.88243187


--------------------------------------------------------------------------------------------------------




--------------------------------------- Iteration      1(   8)  ---------------------------------------


    POTLOK:  cpu time      0.0121: real time      0.0126
    SETDIJ:  cpu time      0.0331: real time      0.0331
     EDDAV:  cpu time      6.4379: real time      6.4420
       DOS:  cpu time      0.0020: real time      0.0020
    CHARGE:  cpu time      0.2093: real time      0.2094
    MIXING:  cpu time      0.0049: real time      0.0049
    --------------------------------------------
      LOOP:  cpu time      6.6993: real time      6.7040

 eigenvalue-minimisations  : 14160
 total energy-change (2. order) : 0.3618220E+03  (-0.4742624E+02)
 number of electron     132.9999969 magnetization       5.3738459
 augmentation part       26.3823557 magnetization       2.7837362

 Broyden mixing:
  rms(total) = 0.78364E+01    rms(broyden)= 0.78363E+01
  rms(prec ) = 0.14103E+02
  weight for this iteration     100.00

 eigenvalues of (default mixing * dielectric matrix)
  average eigenvalue GAMMA=   0.3578
  0.3578  0.3578

 Free energy of the ion-electron system (eV)
  ---------------------------------------------------
  alpha Z        PSCENC =       288.52550067
  Ewald energy   TEWEN  =     -7938.27950541
  -Hartree energ DENC   =     -3401.15596179
  -exchange      EXHF   =         0.00000000
  -V(xc)+E(xc)   XCENC  =      -261.96581738
  PAW double counting   =     11340.71225526   -10673.13118518
  entropy T*S    EENTRO =        -0.29917508
  eigenvalues    EBANDS =     -1091.98869913
  atomic energy  EATOM  =     11539.34056372
  Solvation  Ediel_sol  =         0.00000000
  ---------------------------------------------------
  free energy    TOTEN  =      -198.24202432 eV

  energy without entropy =     -197.94284924  energy(sigma->0) =     -198.09243678


--------------------------------------------------------------------------------------------------------




--------------------------------------- Iteration      1(   9)  ---------------------------------------


    POTLOK:  cpu time      0.0119: real time      0.0128
    SETDIJ:  cpu time      0.0319: real time      0.0319
     EDDAV:  cpu time      7.1337: real time      7.1411
       DOS:  cpu time      0.0022: real time      0.0022
    CHARGE:  cpu time      0.2112: real time      0.2114
    MIXING:  cpu time      0.0046: real time      0.0046
    --------------------------------------------
      LOOP:  cpu time      7.3954: real time      7.4039

 eigenvalue-minimisations  : 16080
 total energy-change (2. order) : 0.9745301E+02  (-0.1867363E+02)
 number of electron     132.9999972 magnetization       5.6527462
 augmentation part       17.3104461 magnetization       4.5108860

 Broyden mixing:
  rms(total) = 0.31296E+01    rms(broyden)= 0.31296E+01
  rms(prec ) = 0.33747E+01
  weight for this iteration     100.00

 eigenvalues of (default mixing * dielectric matrix)
  average eigenvalue GAMMA=   0.3372
  0.3924  0.3096  0.3096

 Free energy of the ion-electron system (eV)
  ---------------------------------------------------
  alpha Z        PSCENC =       288.52550067
  Ewald energy   TEWEN  =     -7938.27950541
  -Hartree energ DENC   =     -3576.69136309
  -exchange      EXHF   =         0.00000000
  -V(xc)+E(xc)   XCENC  =      -256.02776471
  PAW double counting   =     11532.50742362   -10902.16862579
  entropy T*S    EENTRO =        -0.29051114
  eigenvalues    EBANDS =      -787.70473458
  atomic energy  EATOM  =     11539.34056372
  Solvation  Ediel_sol  =         0.00000000
  ---------------------------------------------------
  free energy    TOTEN  =      -100.78901671 eV

  energy without entropy =     -100.49850557  energy(sigma->0) =     -100.64376114


--------------------------------------------------------------------------------------------------------




--------------------------------------- Iteration      1(  10)  ---------------------------------------


    POTLOK:  cpu time      0.0115: real time      0.0123
    SETDIJ:  cpu time      0.0325: real time      0.0325
     EDDAV:  cpu time      7.1777: real time      7.1831
       DOS:  cpu time      0.0021: real time      0.0021
    CHARGE:  cpu time      0.2089: real time      0.2091
    MIXING:  cpu time      0.0047: real time      0.0047
    --------------------------------------------
      LOOP:  cpu time      7.4374: real time      7.4438

 eigenvalue-minimisations  : 16208
 total energy-change (2. order) :-0.3735683E+01  (-0.2099580E+01)
 number of electron     132.9999971 magnetization       4.3697422
 augmentation part       17.0241176 magnetization       3.8282331

 Broyden mixing:
  rms(total) = 0.19909E+01    rms(broyden)= 0.19909E+01
  rms(prec ) = 0.30404E+01
  weight for this iteration     100.00

 eigenvalues of (default mixing * dielectric matrix)
  average eigenvalue GAMMA=   0.5354
  0.9969  0.3134  0.3134  0.5180

 Free energy of the ion-electron system (eV)
  ---------------------------------------------------
  alpha Z        PSCENC =       288.52550067
  Ewald energy   TEWEN  =     -7938.27950541
  -Hartree energ DENC   =     -3548.47086743
  -exchange      EXHF   =         0.00000000
  -V(xc)+E(xc)   XCENC  =      -256.15962716
  PAW double counting   =     11883.32351040   -11257.12346385
  entropy T*S    EENTRO =        -0.33404502
  eigenvalues    EBANDS =      -815.34676547
  atomic energy  EATOM  =     11539.34056372
  Solvation  Ediel_sol  =         0.00000000
  ---------------------------------------------------
  free energy    TOTEN  =      -104.52469954 eV

  energy without entropy =     -104.19065452  energy(sigma->0) =     -104.35767703


--------------------------------------------------------------------------------------------------------




--------------------------------------- Iteration      1(  11)  ---------------------------------------


    POTLOK:  cpu time      0.0116: real time      0.0125
    SETDIJ:  cpu time      0.0327: real time      0.0327
     EDDAV:  cpu time      7.0388: real time      7.0448
       DOS:  cpu time      0.0021: real time      0.0021
    CHARGE:  cpu time      0.2088: real time      0.2089
    MIXING:  cpu time      0.0050: real time      0.0050
    --------------------------------------------
      LOOP:  cpu time      7.2989: real time      7.3061

 eigenvalue-minimisations  : 15912
 total energy-change (2. order) :-0.9052589E+00  (-0.4793045E+00)
 number of electron     132.9999971 magnetization       4.9183254
 augmentation part       18.7657461 magnetization       4.1714052

 Broyden mixing:
  rms(total) = 0.23715E+01    rms(broyden)= 0.23715E+01
  rms(prec ) = 0.26759E+01
  weight for this iteration     100.00

 eigenvalues of (default mixing * dielectric matrix)
  average eigenvalue GAMMA=   0.4537
  0.8025  0.7181  0.3137  0.3137  0.1206

 Free energy of the ion-electron system (eV)
  ---------------------------------------------------
  alpha Z        PSCENC =       288.52550067
  Ewald energy   TEWEN  =     -7938.27950541
  -Hartree energ DENC   =     -3538.28629761
  -exchange      EXHF   =         0.00000000
  -V(xc)+E(xc)   XCENC  =      -256.27593096
  PAW double counting   =     12086.54214924   -11458.15303174
  entropy T*S    EENTRO =        -0.30422827
  eigenvalues    EBANDS =      -828.53917807
  atomic energy  EATOM  =     11539.34056372
  Solvation  Ediel_sol  =         0.00000000
  ---------------------------------------------------
  free energy    TOTEN  =      -105.42995843 eV

  energy without entropy =     -105.12573016  energy(sigma->0) =     -105.27784429


--------------------------------------------------------------------------------------------------------




--------------------------------------- Iteration      1(  12)  ---------------------------------------


    POTLOK:  cpu time      0.0119: real time      0.0121
    SETDIJ:  cpu time      0.0322: real time      0.0322
     EDDAV:  cpu time      7.6062: real time      7.6115
       DOS:  cpu time      0.0021: real time      0.0021
    CHARGE:  cpu time      0.2090: real time      0.2091
    MIXING:  cpu time      0.0051: real time      0.0051
    --------------------------------------------
      LOOP:  cpu time      7.8663: real time      7.8720

 eigenvalue-minimisations  : 17360
 total energy-change (2. order) :-0.6564400E+00  (-0.1786757E+00)
 number of electron     132.9999971 magnetization       5.3774267
 augmentation part       18.8756285 magnetization       4.6953283

 Broyden mixing:
  rms(total) = 0.19881E+01    rms(broyden)= 0.19881E+01
  rms(prec ) = 0.22293E+01
  weight for this iteration     100.00

 eigenvalues of (default mixing * dielectric matrix)
  average eigenvalue GAMMA=   0.4244
  0.7461  0.7461  0.3174  0.3174  0.2096  0.2096

 Free energy of the ion-electron system (eV)
  ---------------------------------------------------
  alpha Z        PSCENC =       288.52550067
  Ewald energy   TEWEN  =     -7938.27950541
  -Hartree energ DENC   =     -3527.13337545
  -exchange      EXHF   =         0.00000000
  -V(xc)+E(xc)   XCENC  =      -256.01899214
  PAW double counting   =     11933.25401624   -11306.79334913
  entropy T*S    EENTRO =        -0.27839229
  eigenvalues    EBANDS =      -838.70286460
  atomic energy  EATOM  =     11539.34056372
  Solvation  Ediel_sol  =         0.00000000
  ---------------------------------------------------
  free energy    TOTEN  =      -106.08639839 eV

  energy without entropy =     -105.80800610  energy(sigma->0) =     -105.94720225


--------------------------------------------------------------------------------------------------------




--------------------------------------- Iteration      1(  13)  ---------------------------------------


    POTLOK:  cpu time      0.0121: real time      0.0129
    SETDIJ:  cpu time      0.0328: real time      0.0328
     EDDAV:  cpu time      7.6064: real time      7.6124
       DOS:  cpu time      0.0022: real time      0.0022
    CHARGE:  cpu time      0.2097: real time      0.2098
    MIXING:  cpu time      0.0052: real time      0.0052
    --------------------------------------------
      LOOP:  cpu time      7.8684: real time      7.8754

 eigenvalue-minimisations  : 17296
 total energy-change (2. order) :-0.3463104E+00  (-0.5487971E-01)
 number of electron     132.9999971 magnetization       7.4811202
 augmentation part       18.9980279 magnetization       6.8292304

 Broyden mixing:
  rms(total) = 0.16349E+01    rms(broyden)= 0.16349E+01
  rms(prec ) = 0.17974E+01
  weight for this iteration     100.00

 eigenvalues of (default mixing * dielectric matrix)
  average eigenvalue GAMMA=   0.8048
  1.8607  1.8607  0.7661  0.3092  0.3092  0.3479  0.1798

 Free energy of the ion-electron system (eV)
  ---------------------------------------------------
  alpha Z        PSCENC =       288.52550067
  Ewald energy   TEWEN  =     -7938.27950541
  -Hartree energ DENC   =     -3522.11997315
  -exchange      EXHF   =         0.00000000
  -V(xc)+E(xc)   XCENC  =      -255.62974558
  PAW double counting   =     11834.48222322   -11208.94648160
  entropy T*S    EENTRO =        -0.27822457
  eigenvalues    EBANDS =      -843.52706606
  atomic energy  EATOM  =     11539.34056372
  Solvation  Ediel_sol  =         0.00000000
  ---------------------------------------------------
  free energy    TOTEN  =      -106.43270876 eV

  energy without entropy =     -106.15448419  energy(sigma->0) =     -106.29359647


--------------------------------------------------------------------------------------------------------




--------------------------------------- Iteration      1(  14)  ---------------------------------------


    POTLOK:  cpu time      0.0118: real time      0.0126
    SETDIJ:  cpu time      0.0325: real time      0.0325
     EDDAV:  cpu time      7.3998: real time      7.4059
       DOS:  cpu time      0.0022: real time      0.0022
    CHARGE:  cpu time      0.2092: real time      0.2093
    MIXING:  cpu time      0.0052: real time      0.0052
    --------------------------------------------
      LOOP:  cpu time      7.6608: real time      7.6677

 eigenvalue-minimisations  : 16752
 total energy-change (2. order) :-0.1479014E+01  (-0.1283052E+00)
 number of electron     132.9999971 magnetization       6.9782792
 augmentation part       18.8770455 magnetization       6.4967131

 Broyden mixing:
  rms(total) = 0.76798E+00    rms(broyden)= 0.76798E+00
  rms(prec ) = 0.13074E+01
  weight for this iteration     100.00

 eigenvalues of (default mixing * dielectric matrix)
  average eigenvalue GAMMA=   0.7532
  2.1112  1.1791  1.1791  0.3093  0.3093  0.4481  0.3099  0.1796

 Free energy of the ion-electron system (eV)
  ---------------------------------------------------
  alpha Z        PSCENC =       288.52550067
  Ewald energy   TEWEN  =     -7938.27950541
  -Hartree energ DENC   =     -3519.13137263
  -exchange      EXHF   =         0.00000000
  -V(xc)+E(xc)   XCENC  =      -251.57031751
  PAW double counting   =     11571.76392767   -10948.34403875
  entropy T*S    EENTRO =        -0.27787945
  eigenvalues    EBANDS =      -849.93860090
  atomic energy  EATOM  =     11539.34056372
  Solvation  Ediel_sol  =         0.00000000
  ---------------------------------------------------
  free energy    TOTEN  =      -107.91172259 eV

  energy without entropy =     -107.63384315  energy(sigma->0) =     -107.77278287


--------------------------------------------------------------------------------------------------------




--------------------------------------- Iteration      1(  15)  ---------------------------------------


    POTLOK:  cpu time      0.0119: real time      0.0127
    SETDIJ:  cpu time      0.0318: real time      0.0319
     EDDAV:  cpu time      7.8718: real time      7.8784
       DOS:  cpu time      0.0022: real time      0.0022
    CHARGE:  cpu time      0.2062: real time      0.2063
    MIXING:  cpu time      0.0057: real time      0.0057
    --------------------------------------------
      LOOP:  cpu time      8.1298: real time      8.1372

 eigenvalue-minimisations  : 18032
 total energy-change (2. order) : 0.2704835E+00  (-0.1433181E+00)
 number of electron     132.9999971 magnetization       6.3515396
 augmentation part       19.0713144 magnetization       5.9209999

 Broyden mixing:
  rms(total) = 0.63417E+00    rms(broyden)= 0.63416E+00
  rms(prec ) = 0.11781E+01
  weight for this iteration     100.00

 eigenvalues of (default mixing * dielectric matrix)
  average eigenvalue GAMMA=   0.6966
  2.0942  1.1796  1.1796  0.5192  0.3091  0.3091  0.3127  0.1908  0.1747

 Free energy of the ion-electron system (eV)
  ---------------------------------------------------
  alpha Z        PSCENC =       288.52550067
  Ewald energy   TEWEN  =     -7938.27950541
  -Hartree energ DENC   =     -3512.45271624
  -exchange      EXHF   =         0.00000000
  -V(xc)+E(xc)   XCENC  =      -251.86089469
  PAW double counting   =     11744.12158295   -11123.25166769
  entropy T*S    EENTRO =        -0.27211014
  eigenvalues    EBANDS =      -853.51199227
  atomic energy  EATOM  =     11539.34056372
  Solvation  Ediel_sol  =         0.00000000
  ---------------------------------------------------
  free energy    TOTEN  =      -107.64123910 eV

  energy without entropy =     -107.36912896  energy(sigma->0) =     -107.50518403


--------------------------------------------------------------------------------------------------------




--------------------------------------- Iteration      1(  16)  ---------------------------------------


    POTLOK:  cpu time      0.0114: real time      0.0125
    SETDIJ:  cpu time      0.0325: real time      0.0326
     EDDAV:  cpu time      7.6261: real time      7.6314
       DOS:  cpu time      0.0021: real time      0.0021
    CHARGE:  cpu time      0.2069: real time      0.2073
    MIXING:  cpu time      0.0055: real time      0.0055
    --------------------------------------------
      LOOP:  cpu time      7.8845: real time      7.8913

 eigenvalue-minimisations  : 17352
 total energy-change (2. order) : 0.3485261E+00  (-0.5454878E-01)
 number of electron     132.9999970 magnetization       6.3144080
 augmentation part       19.1935199 magnetization       5.8869035

 Broyden mixing:
  rms(total) = 0.45031E+00    rms(broyden)= 0.45031E+00
  rms(prec ) = 0.81922E+00
  weight for this iteration     100.00

 eigenvalues of (default mixing * dielectric matrix)
  average eigenvalue GAMMA=   0.6799
  2.0443  1.1953  1.1953  0.7326  0.3087  0.3087  0.3272  0.3272  0.1801  0.1801

 Free energy of the ion-electron system (eV)
  ---------------------------------------------------
  alpha Z        PSCENC =       288.52550067
  Ewald energy   TEWEN  =     -7938.27950541
  -Hartree energ DENC   =     -3510.97046067
  -exchange      EXHF   =         0.00000000
  -V(xc)+E(xc)   XCENC  =      -252.91113269
  PAW double counting   =     11900.01719136   -11280.03139476
  entropy T*S    EENTRO =        -0.27209910
  eigenvalues    EBANDS =      -852.71137612
  atomic energy  EATOM  =     11539.34056372
  Solvation  Ediel_sol  =         0.00000000
  ---------------------------------------------------
  free energy    TOTEN  =      -107.29271302 eV

  energy without entropy =     -107.02061392  energy(sigma->0) =     -107.15666347


--------------------------------------------------------------------------------------------------------




--------------------------------------- Iteration      1(  17)  ---------------------------------------


    POTLOK:  cpu time      0.0130: real time      0.0138
    SETDIJ:  cpu time      0.0326: real time      0.0326
     EDDAV:  cpu time      7.3012: real time      7.3061
       DOS:  cpu time      0.0022: real time      0.0022
    CHARGE:  cpu time      0.2065: real time      0.2066
    MIXING:  cpu time      0.0057: real time      0.0057
    --------------------------------------------
      LOOP:  cpu time      7.5614: real time      7.5671

 eigenvalue-minimisations  : 16576
 total energy-change (2. order) : 0.6178587E-01  (-0.7867343E-02)
 number of electron     132.9999970 magnetization       6.3122842
 augmentation part       19.1929365 magnetization       5.8826645

 Broyden mixing:
  rms(total) = 0.44254E+00    rms(broyden)= 0.44254E+00
  rms(prec ) = 0.79051E+00
  weight for this iteration     100.00

 eigenvalues of (default mixing * dielectric matrix)
  average eigenvalue GAMMA=   0.6233
  2.0354  1.1900  1.1900  0.7222  0.3085  0.3085  0.3016  0.3016  0.1757  0.1757
  0.1474

 Free energy of the ion-electron system (eV)
  ---------------------------------------------------
  alpha Z        PSCENC =       288.52550067
  Ewald energy   TEWEN  =     -7938.27950541
  -Hartree energ DENC   =     -3512.06472613
  -exchange      EXHF   =         0.00000000
  -V(xc)+E(xc)   XCENC  =      -252.96668734
  PAW double counting   =     11938.29699790   -11318.49426247
  entropy T*S    EENTRO =        -0.27237465
  eigenvalues    EBANDS =      -851.31643344
  atomic energy  EATOM  =     11539.34056372
  Solvation  Ediel_sol  =         0.00000000
  ---------------------------------------------------
  free energy    TOTEN  =      -107.23092715 eV

  energy without entropy =     -106.95855251  energy(sigma->0) =     -107.09473983


--------------------------------------------------------------------------------------------------------




--------------------------------------- Iteration      1(  18)  ---------------------------------------


    POTLOK:  cpu time      0.0119: real time      0.0125
    SETDIJ:  cpu time      0.0323: real time      0.0323
     EDDAV:  cpu time      6.8888: real time      6.8946
       DOS:  cpu time      0.0021: real time      0.0021
    CHARGE:  cpu time      0.2079: real time      0.2093
    MIXING:  cpu time      0.0058: real time      0.0058
    --------------------------------------------
      LOOP:  cpu time      7.1488: real time      7.1565

 eigenvalue-minimisations  : 15224
 total energy-change (2. order) : 0.2792437E-01  (-0.6802851E-03)
 number of electron     132.9999970 magnetization       6.3635401
 augmentation part       19.1848675 magnetization       5.9305191

 Broyden mixing:
  rms(total) = 0.43873E+00    rms(broyden)= 0.43873E+00
  rms(prec ) = 0.77939E+00
  weight for this iteration     100.00

 eigenvalues of (default mixing * dielectric matrix)
  average eigenvalue GAMMA=   0.6126
  2.0391  1.1507  1.1507  0.6771  0.3661  0.3661  0.3089  0.3089  0.3109  0.3109
  0.1812  0.1812

 Free energy of the ion-electron system (eV)
  ---------------------------------------------------
  alpha Z        PSCENC =       288.52550067
  Ewald energy   TEWEN  =     -7938.27950541
  -Hartree energ DENC   =     -3512.67183297
  -exchange      EXHF   =         0.00000000
  -V(xc)+E(xc)   XCENC  =      -252.96602827
  PAW double counting   =     11951.36874783   -11331.67168285
  entropy T*S    EENTRO =        -0.27258271
  eigenvalues    EBANDS =      -850.57618279
  atomic energy  EATOM  =     11539.34056372
  Solvation  Ediel_sol  =         0.00000000
  ---------------------------------------------------
  free energy    TOTEN  =      -107.20300279 eV

  energy without entropy =     -106.93042007  energy(sigma->0) =     -107.06671143


[...]
  194        fordep                                0.611481                            6   3
  195          setdij_                               0.611125                         36   4
  196            m_sumb_d                              0.010808                       36   5
  197        setdij_                               1.991041                          120   3
  198          m_sumb_d                              0.036531                        120   4
  199        set_dd_magatom                        0.000026                            6   3
  200        set_dd_paw                            0.101226                            6   3
  201          m_sumb_d                              0.024173                         42   4
  202        strkin                                0.013024                            6   3
  203          m_sumb_d                              0.000053                          6   4
  204        strelo                                0.020029                            6   3
  205          m_sumb_d                              0.000719                         12   4
  206        strnlr                               21.920617                            6   3
  207          rspher_all                            1.135192                         54   4
  208          phaser                                8.456036                       1728   4
  209          rpro_isp                             12.141562                       1728   4
  210            fftwav_mpi                            2.468085                    76032   5
  211              fftwav                                2.375903                  76032   6
  212                fft3d                                 0.511450                76032   7
  213            rpromu_acc                            5.103276                    20736   5
  214          m_sumb_d                              0.132100                          6   4
  215        fft3d_mpi                             0.024853                          132   3
  216          fftbrc_mpi                            0.020009                        132   4
  217            fftbas_plan_mpi                       0.019937                      132   5
  218              map_forward                           0.007494                    120   6
  219                map_gather                            0.001472                   60   7
  220                m_alltoallv_z                         0.000785                   60   7
  221                map_scatter                           0.004209                   60   7
  222              map_backward                          0.008799                    144   6
  223                map_gather                            0.001975                   72   7
  224                m_alltoallv_z                         0.000827                   72   7
  225                map_scatter                           0.004845                   72   7
  226        m_sumb_d                              0.000186                           30   3
  227        forhar                                0.024195                           12   3
  228          m_sumb_d                              0.000304                         12   4
  229        strehar                               0.015502                            6   3
  230          m_sumb_d                              0.000024                          6   4
  231        chggra                                0.005681                            6   3
  232          fft3d_mpi                             0.003553                         18   4
  233            fftbrc_mpi                            0.002886                       18   5
  234              fftbas_plan_mpi                       0.002876                     18   6
  235                map_forward                           0.001534                   24   7
  236                  map_gather                            0.000301                 12   8
  237                  m_alltoallv_z                         0.000156                 12   8
  238                  map_scatter                           0.000865                 12   8
  239                map_backward                          0.000837                   12   7
  240                  map_gather                            0.000162                  6   8
  241                  m_alltoallv_z                         0.000066                  6   8
  242                  map_scatter                           0.000511                  6   8
  243          m_sumb_d                              0.000064                         12   4
  244          pothar                                0.000555                          6   4
  245            m_sumb_d                              0.000087                        6   5
  246        brmix                                 0.046221                            6   3
  247          m_sumb_d                              0.000392                         36   4
  248          brpre                                 0.000267                         12   4
  249          setg0                                 0.011455                          6   4
  250          broyd                                 0.020040                          6   4
  251            m_sumb_d                              0.003261                      146   5
  252            brget                                 0.004815                      574   5
  253            brsav                                 0.001130                      135   5
  254        m_bcast_d                             0.000165                           12   3
  255      potlok                                0.047961                              6   2
  256        fft3d_mpi                             0.029585                          156   3
  257          fftbrc_mpi                            0.023313                        156   4
  258            fftbas_plan_mpi                       0.023233                      156   5
  259              map_forward                           0.010367                    168   6
  260                map_gather                            0.002247                   96   7
  261                m_alltoallv_z                         0.001094                   96   7
  262                map_scatter                           0.005782                   96   7
  263              map_backward                          0.008164                    144   6
  264                map_gather                            0.001986                   72   7
  265                m_alltoallv_z                         0.000816                   72   7
  266                map_scatter                           0.004212                   72   7
  267        m_sumb_d                              0.000149                           30   3
  268        pothar                                0.000564                            6   3
  269          m_sumb_d                              0.000046                          6   4
  270        m_bcast_d                             0.000145                           12   3
  271      potlok_metagga                        0.000001                              6   2
  272      set_dd_magatom                        0.000021                              6   2
  273      set_dd_paw                            0.101029                              6   2
  274        m_sumb_d                              0.024074                           42   3
  275      wavpre_noio                           0.318652                              5   2
  276        stufak                                0.072738                            5   3
  277      densta                                0.017480                              1   2
  278        m_sumb_d                              0.001118                           40   3
 
 Flat profile
 ============
 
             routine name                   CPU           calls
 ---------------------------------------------------------------
 raccmu_                               203.819457      351030
 eddav                                 181.420429         140
 lapack                                162.172202      351030
 redis_pw                               84.324198     1927748
 m_sumb_d                               65.918480     1074257
 phaser                                 55.099294       11456
 m_alltoall_d                           36.458088     5153780
 eccp                                   21.723576      197120
 orth1                                  17.263208     1054242
 redis_proj                             16.504241     2433072
 fft3d                                  15.875473     2142342
 fftwav                                 14.952217     1440282
 rpromu_acc                             14.212605      282422
 hamiltmu                               10.988944      351030
 w1_copy                                10.374662     2106180
 racc0mu_acc                            10.263231      351030
 init_acc                               10.034832           1
 overl                                   9.955094     1207384
 total_time                              9.275540           1
 m_bcast_z                               8.092015      356662
 soft_charge                             7.163470         110
 setup_precond                           7.129162      197120
 rpro_isp                                6.316079        2496
 m_bcast_d                               5.863759      702317
 ggemm                                   5.614130      449590
 overl_mu                                5.452667      351030
 setdij_                                 4.531247         273
 pw_charge                               4.446892      123458
 acc_init_cublas                         3.878577           1
 vhamil                                  3.213307      702060
 kinhamil                                3.188237      702060
 newband                                 2.935942      359990
 fftext_mpi                              2.920449      702060
 apply_precond                           2.780573      504940
 depsum                                  2.530496         110
 augmentation_charge                     1.980435         110
 fftwav_mpi                              1.899753     1440282
 rspher_all                              1.607190          79
 set_dd_paw                              1.585059         122
 fft3d_mpi                               1.475464      705676
 acc_init_cusolver                       1.128097           1
 potlok                                  0.705669         116
 elmin                                   0.602639           6
 m_alltoallv_z                           0.444645        4068
 dfftw_execute                           0.418884        1350
 proall                                  0.345567           6
 orthch                                  0.334189           6
 lincom                                  0.329597        9344
 map_scatter                             0.319683        4068
 sphpro_fast                             0.301035           7
 densta                                  0.251940         141
 map_gather                              0.249252        4068
 wavpre_noio                             0.245914           5
 brmix                                   0.244258         110
 acc_cufft_makeplan                      0.244087          19
 w1_projall                              0.240539      252470
 setg0                                   0.212637         122
 force_and_stress                        0.185495           6
 broyd                                   0.146448         110
 fftbas_plan_mpi                         0.129721        3616
 stufak                                  0.088137           6
 choleski                                0.086578         384
 truncate_high_frequency_w1              0.069943      899180
 brget                                   0.061602        7619
 set_charge                              0.056570         110
 strnlr                                  0.055728           6
 map_forward                             0.026232        3412
 map_backward                            0.024868        3820
 forhar                                  0.023891          12
 strelo                                  0.019310           6
 fornlr                                  0.019205           6
 fft_gq                                  0.015729         110
 strehar                                 0.015478           6
 brsav                                   0.015321        1901
 strkin                                  0.012971           6
 forloc                                  0.012134           6
 pothar                                  0.010565         122
 brpre                                   0.005102         220
 rsp                                     0.003070           6
 fftbrc_mpi                              0.001974        3616
 chggra                                  0.001509           6
 set_dd_magatom                          0.000502         122
 vectorpot                               0.000448         111
 fewald                                  0.000369           6
 brgrid                                  0.000360           1
 fordep                                  0.000356           6
 rcp                                     0.000157           6
 crpa_reader                             0.000031           1
 acc_cufft_makeplans                     0.000011           3
 potlok_metagga                          0.000004         116
 redis_pw_over_bands                     0.000001           6
 rotate_active_occupied_orbital          0.000001           6
 ---------------------------------------------------------------
  summed up times     1042.949129819870     
 
 Accumulative profile
 ====================
 
             routine name                   CPU           calls
 ---------------------------------------------------------------
 total_time                           1042.949130           1
 elmin                                 980.013511           6
 eddav                                 951.749966         140
 hamiltmu                              245.045251      351030
 raccmu_                               219.535356      351030
 lapack                                162.172202      351030
 redis_pw                              102.393147     1927748
 m_sumb_d                               65.918480     1074257
 phaser                                 55.099294       11456
 newband                                47.640073      359990
 m_alltoall_d                           36.458088     5153780
 redis_proj                             34.893380     2433072
 force_and_stress                       33.463244           6
 fftwav_mpi                             27.740491     1440282
 fftwav                                 25.840738     1440282
 set_charge                             22.773222         110
 strnlr                                 21.920617           6
 eccp                                   21.723576      197120
 soft_charge                            17.344453         110
 orth1                                  17.263208     1054242
 rpro_isp                               16.593067        2496
 fft3d                                  15.875473     2142342
 rpromu_acc                             14.212605      282422
 kinhamil                               11.307645      702060
 w1_copy                                10.374662     2106180
 racc0mu_acc                            10.263231      351030
 init_acc                               10.034832           1
 overl                                   9.955094     1207384
 fftext_mpi                              8.119408      702060
 m_bcast_z                               8.092015      356662
 fft3d_mpi                               8.077675      705676
 w1_projall                              7.585350      252470
 fornlr                                  7.260742           6
 setup_precond                           7.129162      197120
 m_bcast_d                               5.863759      702317
 ggemm                                   5.614130      449590
 overl_mu                                5.452667      351030
 setdij_                                 4.626674         273
 pw_charge                               4.446892      123458
 acc_init_cublas                         3.878577           1
 vhamil                                  3.213307      702060
 augmentation_charge                     2.819427         110
 apply_precond                           2.780573      504940
 depsum                                  2.552772         110
 set_dd_paw                              2.056740         122
 proall                                  1.677007           6
 fftbrc_mpi                              1.615258        3616
 fftbas_plan_mpi                         1.613284        3616
 rspher_all                              1.607190          79
 orthch                                  1.503771           6
 potlok                                  1.434357         116
 fft_gq                                  1.271064         110
 acc_init_cusolver                       1.128097           1
 brmix                                   0.732117         110
 map_backward                            0.708399        3820
 fordep                                  0.611481           6
 m_alltoallv_z                           0.444645        4068
 dfftw_execute                           0.418884        1350
 map_forward                             0.356280        3412
 lincom                                  0.329597        9344
 map_scatter                             0.319683        4068
 wavpre_noio                             0.318652           5
 sphpro_fast                             0.310787           7
 densta                                  0.285819         141
 broyd                                   0.262609         110
 map_gather                              0.249252        4068
 acc_cufft_makeplans                     0.244098           3
 acc_cufft_makeplan                      0.244087          19
 setg0                                   0.212637         122
 stufak                                  0.088137           6
 choleski                                0.086578         384
 truncate_high_frequency_w1              0.069943      899180
 brget                                   0.061602        7619
 forhar                                  0.024195          12
 strelo                                  0.020029           6
 strehar                                 0.015502           6
 brsav                                   0.015321        1901
 forloc                                  0.013063           6
 strkin                                  0.013024           6
 pothar                                  0.011690         122
 chggra                                  0.005681           6
 brpre                                   0.005102         220
 fewald                                  0.004657           6
 rsp                                     0.003070           6
 set_dd_magatom                          0.000502         122
 vectorpot                               0.000448         111
 brgrid                                  0.000360           1
 rcp                                     0.000157           6
 crpa_reader                             0.000031           1
 potlok_metagga                          0.000004         116
 redis_pw_over_bands                     0.000001           6
 rotate_active_occupied_orbital          0.000001           6
 ---------------------------------------------------------------
 
Profiling took   4.346011  2.228712  0.003208  0.003130 seconds
Profiling took   2.800623 seconds
