 vasp.6.3.2 27Jun22 (build Jul  3 2023 11:46:21) complex                         
 executed on    LinuxNV_CrayMPICH date 2024.04.22  03:24:12
 running on    4 total cores
 distrk:  each k-point on    4 cores,    1 groups
 distr:  one band on NCORE=   1 cores,    4 groups


--------------------------------------------------------------------------------------------------------


 INCAR:
   ALGO = Normal
   AMIX_MAG = 0.8
   BMIX = 0.001
   BMIX_MAG = 0.001
   EDIFF = 0.0034
   EFIELD_PEAD = 0.0 0.0 0.0
   ENCUT = 520.0
   IBRION = 2
   ICHARG = 1
   ISIF = 3
   ISMEAR = 0
   ISPIN = 2
   ISTART = 1
   LCALCEPS = False
   LCALCPOL = False
   LEFG = False
   LORBIT = 11
   LPEAD = False
   LREAL = Auto
   LWAVE = False
   MAGMOM = 4*7.0 40*5.0 24*0.6
   NELM = 1000
   NELMDL = 6
   NSW = 99
   PREC = accurate
   SIGMA = 0.2

 POTCAR:    PAW_PBE Eu 23Dec2003                  
 POTCAR:    PAW_PBE Ni_pv 06Sep2000               
 POTCAR:    PAW_PBE P 06Sep2000                   
 POTCAR:    PAW_PBE Eu 23Dec2003                  
   SHA256 =  ed303d27e7c5191953f9b15539336e6f36d9037c1d2e92e80c13d733697cb93d Eu/POTCAR             
   COPYR  = (c) Copyright 23Dec2003 Georg Kresse                                                    
   COPYR  = This file is part of the software VASP. Any use, copying, and all other rights are regul
   COPYR  = If you do not have a valid VASP license, you may not use, copy or distribute this file. 
   VRHFIN =Eu : [core=Kr4d]                                                                         
   LEXCH  = PE                                                                                      
   EATOM  =  2619.8085 eV,  192.5505 Ry                                                             
                                                                                                    
   TITEL  = PAW_PBE Eu 23Dec2003                                                                    
   LULTRA =        F    use ultrasoft PP ?                                                          
   IUNSCR =        1    unscreen: 0-lin 1-nonlin 2-no                                               
   RPACOR =    2.300    partial core radius                                                         
   POMASS =  151.965; ZVAL   =   17.000    mass and valenz                                          
   RCORE  =    2.800    outmost cutoff radius                                                       
   RWIGS  =    2.800; RWIGS  =    1.482    wigner-seitz radius (au A)                               
   ENMAX  =  249.668; ENMIN  =  187.251 eV                                                          
   RCLOC  =    2.308    cutoff for local pot                                                        
   LCOR   =        T    correct aug charges                                                         
   LPAW   =        T    paw PP                                                                      
   EAUG   =  549.628                                                                                
   DEXC   =    0.000                                                                                
   RMAX   =    2.870    core radius for proj-oper                                                   
   RAUG   =    1.300    factor for augmentation sphere                                              
   RDEP   =    2.887    radius for radial grids                                                     
   RDEPT  =    2.221    core radius for aug-charge                                                  
                                                                                                    
   Atomic configuration                                                                             
   14 entries                                                                                       
     n  l   j            E        occ.                                                              
     1  0  0.50    -48354.7667   2.0000                                                             
     2  0  0.50     -7939.6472   2.0000                                                             
     2  1  1.50     -7072.6637   6.0000                                                             
     3  0  0.50     -1747.1875   2.0000                                                             
     3  1  1.50     -1477.5221   6.0000                                                             
     3  2  2.50     -1117.4686  10.0000                                                             
     4  0  0.50      -346.8682   2.0000                                                             
     4  1  1.50      -258.1962   6.0000                                                             
     4  2  2.50      -134.7724  10.0000                                                             
     5  0  0.50       -44.6510   2.0000                                                             
     6  0  0.50        -3.6227   2.0000                                                             
     5  1  1.50       -23.7639   6.0000                                                             
     5  2  2.50        -1.3130   0.0000                                                             
     4  3  2.50        -2.7310   7.0000                                                             
   Description                                                                                      
     l       E           TYP  RCUT    TYP  RCUT                                                     
     0    -44.6510453     23  2.400                                                                 
     0     -3.6226685     23  2.400                                                                 
     1    -23.7638687     23  2.400                                                                 
     1     27.2116520     23  2.400                                                                 
     2     -1.3129622     23  2.500                                                                 
     2     13.6058260     23  2.500                                                                 
     3     -2.7309948     23  2.800                                                                 
     3     -3.4014565     23  2.800                                                                 
  local pseudopotential read in
  partial core-charges read in
  partial kinetic energy density read in
  atomic valenz-charges read in
  non local Contribution for L=            0  read in
    real space projection operators read in
  non local Contribution for L=            0  read in
    real space projection operators read in
  non local Contribution for L=            1  read in
    real space projection operators read in
  non local Contribution for L=            1  read in
    real space projection operators read in
  non local Contribution for L=            2  read in
    real space projection operators read in
  non local Contribution for L=            2  read in
    real space projection operators read in
  non local Contribution for L=            3  read in
    real space projection operators read in
  non local Contribution for L=            3  read in
    real space projection operators read in
    PAW grid and wavefunctions read in
 
   number of l-projection  operators is LMAX  =            8
   number of lm-projection operators is LMMAX =           32
 
 POTCAR:    PAW_PBE Ni_pv 06Sep2000               
   SHA256 =  368cd815a19284a5fda64519f43fef792dad8376deb9e2da41aae78b997dc50e Ni_pv/POTCAR          
   COPYR  = (c) Copyright 06Sep2000 Georg Kresse                                                    
   COPYR  = This file is part of the software VASP. Any use, copying, and all other rights are regul
   COPYR  = If you do not have a valid VASP license, you may not use, copy or distribute this file. 
   VRHFIN =Ni:                                                                                      
   LEXCH  = PE                                                                                      
   EATOM  =  3501.1230 eV,  257.3253 Ry                                                             
                                                                                                    
   TITEL  = PAW_PBE Ni_pv 06Sep2000                                                                 
   LULTRA =        F    use ultrasoft PP ?                                                          
   IUNSCR =        1    unscreen: 0-lin 1-nonlin 2-no                                               
   RPACOR =    1.500    partial core radius                                                         
   POMASS =   58.690; ZVAL   =   16.000    mass and valenz                                          
   RCORE  =    2.000    outmost cutoff radius                                                       
   RWIGS  =    2.000; RWIGS  =    1.058    wigner-seitz radius (au A)                               
   ENMAX  =  367.986; ENMIN  =  275.989 eV                                                          
   RCLOC  =    1.301    cutoff for local pot                                                        
   LCOR   =        T    correct aug charges                                                         
   LPAW   =        T    paw PP                                                                      
   EAUG   =  703.443                                                                                
   DEXC   =    0.000                                                                                
   RMAX   =    2.041    core radius for proj-oper                                                   
   RAUG   =    1.300    factor for augmentation sphere                                              
   RDEP   =    2.103    radius for radial grids                                                     
   RDEPT  =    1.618    core radius for aug-charge                                                  
                                                                                                    
   Atomic configuration                                                                             
    8 entries                                                                                       
     n  l   j            E        occ.                                                              
     1  0  0.50     -8206.4253   2.0000                                                             
     2  0  0.50      -976.1748   2.0000                                                             
     2  1  1.50      -839.0571   6.0000                                                             
     3  0  0.50      -105.9991   2.0000                                                             
     3  1  1.50       -66.4603   6.0000                                                             
     3  2  2.50        -4.6458   9.0000                                                             
     4  0  0.50        -4.4926   1.0000                                                             
     4  3  2.50        -1.3606   0.0000                                                             
   Description                                                                                      
     l       E           TYP  RCUT    TYP  RCUT                                                     
     1    -66.4602962     23  1.700                                                                 
     1     -1.3605826     23  1.700                                                                 
     2     -4.6457867     23  2.000                                                                 
     2     -6.0063693     23  2.000                                                                 
     0     -4.4925576     23  1.900                                                                 
     0     16.3626226     23  1.900                                                                 
  local pseudopotential read in
  partial core-charges read in
  partial kinetic energy density read in
  atomic valenz-charges read in
  non local Contribution for L=            1  read in
    real space projection operators read in
  non local Contribution for L=            1  read in
    real space projection operators read in
  non local Contribution for L=            2  read in
    real space projection operators read in
  non local Contribution for L=            2  read in
    real space projection operators read in
  non local Contribution for L=            0  read in
    real space projection operators read in
  non local Contribution for L=            0  read in
    real space projection operators read in
    PAW grid and wavefunctions read in
 
   number of l-projection  operators is LMAX  =            6
   number of lm-projection operators is LMMAX =           18
 
 POTCAR:    PAW_PBE P 06Sep2000                   
   SHA256 =  df60c54a93efe35c9e85ae94c010c75e9f6960a95d5595d7cdba4096d109af88 P/POTCAR              
   COPYR  = (c) Copyright 06Sep2000 Georg Kresse                                                    
   COPYR  = This file is part of the software VASP. Any use, copying, and all other rights are regul
   COPYR  = If you do not have a valid VASP license, you may not use, copy or distribute this file. 
   VRHFIN =P : s2p3                                                                                 
   LEXCH  = PE                                                                                      
   EATOM  =   176.0430 eV,   12.9388 Ry                                                             
                                                                                                    
   TITEL  = PAW_PBE P 06Sep2000                                                                     
   LULTRA =        F    use ultrasoft PP ?                                                          
   IUNSCR =        1    unscreen: 0-lin 1-nonlin 2-no                                               
   RPACOR =    1.500    partial core radius                                                         
   POMASS =   30.974; ZVAL   =    5.000    mass and valenz                                          
   RCORE  =    1.900    outmost cutoff radius                                                       
   RWIGS  =    2.330; RWIGS  =    1.233    wigner-seitz radius (au A)                               
   ENMAX  =  255.040; ENMIN  =  191.280 eV                                                          
   ICORE  =        2    local potential                                                             
   LCOR   =        T    correct aug charges                                                         
   LPAW   =        T    paw PP                                                                      
   EAUG   =  342.924                                                                                
   DEXC   =    0.000                                                                                
   RMAX   =    1.935    core radius for proj-oper                                                   
   RAUG   =    1.300    factor for augmentation sphere                                              
   RDEP   =    1.931    radius for radial grids                                                     
   RDEPT  =    1.794    core radius for aug-charge                                                  
                                                                                                    
   Atomic configuration                                                                             
    6 entries                                                                                       
     n  l   j            E        occ.                                                              
     1  0  0.50     -2084.0982   2.0000                                                             
     2  0  0.50      -173.9859   2.0000                                                             
     2  1  1.50      -124.4865   6.0000                                                             
     3  0  0.50       -13.9692   2.0000                                                             
     3  1  0.50        -5.5067   3.0000                                                             
     3  2  1.50        -5.4423   0.0000                                                             
   Description                                                                                      
     l       E           TYP  RCUT    TYP  RCUT                                                     
     0    -13.9691527     23  1.900                                                                 
     0    -11.7794650     23  1.900                                                                 
     1     -5.5066937     23  1.900                                                                 
     1     -0.2556953     23  1.900                                                                 
     2     -5.4423304     23  1.900                                                                 
  local pseudopotential read in
  partial core-charges read in
  partial kinetic energy density read in
  atomic valenz-charges read in
  non local Contribution for L=            0  read in
    real space projection operators read in
  non local Contribution for L=            0  read in
    real space projection operators read in
  non local Contribution for L=            1  read in
    real space projection operators read in
  non local Contribution for L=            1  read in
    real space projection operators read in
    PAW grid and wavefunctions read in
 
   number of l-projection  operators is LMAX  =            4
   number of lm-projection operators is LMMAX =            8
 
 Optimization of the real space projectors (new method)

 maximal supplied QI-value         = 13.42
 optimisation between [QCUT,QGAM] = [ 11.67, 23.35] = [ 38.16,152.62] Ry 
 Optimized for a Real-space Cutoff    1.63 Angstroem

   l    n(q)    QCUT    max X(q) W(low)/X(q) W(high)/X(q)  e(spline) 
   0     11    11.673    10.400    0.14E-04    0.18E-05    0.24E-07
   0     11    11.673    10.768    0.21E-04    0.32E-05    0.49E-07
   1     11    11.673     4.094    0.40E-05    0.13E-04    0.93E-07
   1     11    11.673     4.009    0.11E-04    0.46E-04    0.33E-06
   2     10    11.673    29.030    0.79E-04    0.60E-04    0.70E-06
   2     10    11.673    19.941    0.80E-04    0.60E-04    0.71E-06
   3     10    11.673    88.889    0.23E-03    0.29E-03    0.30E-06
   3     10    11.673    76.102    0.23E-03    0.30E-03    0.30E-06
 Optimization of the real space projectors (new method)

 maximal supplied QI-value         = 18.90
 optimisation between [QCUT,QGAM] = [ 11.53, 23.24] = [ 37.21,151.29] Ry 
 Optimized for a Real-space Cutoff    1.36 Angstroem

   l    n(q)    QCUT    max X(q) W(low)/X(q) W(high)/X(q)  e(spline) 
   1      9    11.527     2.836    0.16E-04    0.30E-04    0.95E-07
   1      9    11.527     4.023    0.73E-04    0.81E-04    0.21E-06
   2      9    11.527    73.368    0.15E-03    0.29E-03    0.28E-06
   2      9    11.527    69.010    0.15E-03    0.29E-03    0.29E-06
   0      9    11.527    54.797    0.43E-04    0.28E-04    0.85E-07
   0      9    11.527    24.266    0.33E-04    0.24E-04    0.75E-07
 Optimization of the real space projectors (new method)

 maximal supplied QI-value         = 19.84
 optimisation between [QCUT,QGAM] = [ 11.51, 23.22] = [ 37.09,150.92] Ry 
 Optimized for a Real-space Cutoff    1.21 Angstroem

   l    n(q)    QCUT    max X(q) W(low)/X(q) W(high)/X(q)  e(spline) 
   0      8    11.508   160.924    0.96E-04    0.17E-03    0.52E-07
   0      8    11.508   130.086    0.95E-04    0.17E-03    0.51E-07
   1      8    11.508    74.434    0.16E-03    0.74E-04    0.91E-07
   1      8    11.508    49.120    0.16E-03    0.71E-04    0.89E-07
  PAW_PBE Eu 23Dec2003                  :
 energy of atom  1       EATOM=-2619.8085
 kinetic energy error for atom=    0.0015 (will be added to EATOM!!)
  PAW_PBE Ni_pv 06Sep2000               :
 energy of atom  2       EATOM=-3501.1230
 kinetic energy error for atom=    0.0575 (will be added to EATOM!!)
  PAW_PBE P 06Sep2000                   :
 energy of atom  3       EATOM= -176.0430
 kinetic energy error for atom=    0.0011 (will be added to EATOM!!)
 
 
 POSCAR: Eu4 Ni40 P24
  positions in direct lattice
  No initial velocities read in
 exchange correlation table for  LEXCH =        8
   RHO(1)=    0.500       N(1)  =     2000
   RHO(2)=  100.500       N(2)  =     4000

 VTST: version 4.2, (08/11/21)

 CHAIN: initializing optimizer
 
 OPT: Using VASP Conjugate-Gradient optimizer
 CHAIN: Read ICHAIN             0
 
 POSCAR: Eu4 Ni40 P24
  positions in direct lattice
  No initial velocities read in
 


--------------------------------------------------------------------------------------------------------


 ion  position               nearest neighbor table
   1  0.750  0.982  0.749-
   2  0.250  0.018  0.251-
   3  0.750  0.518  0.249-
   4  0.250  0.482  0.751-
   5  0.451  0.012  0.922-  47 2.32  57 2.35  58 2.39  49 2.50
   6  0.750  0.895  0.206-  66 2.32  59 2.35  54 2.35  68 2.46
   7  0.951  0.512  0.578-  55 2.32  50 2.35  60 2.39  53 2.50
   8  0.449  0.550  0.075-  45 2.36  54 2.37  51 2.42  67 2.44
   9  0.750  0.774  0.555-  50 2.37  61 2.37  53 2.40  63 2.61
  10  0.999  0.732  0.917-  58 2.40  48 2.41  51 2.48  47 2.54
  11  0.549  0.512  0.578-  55 2.32  61 2.35  60 2.39  53 2.50
  12  0.250  0.810  0.041-  54 2.46  59 2.46  49 2.51
  13  0.501  0.732  0.917-  58 2.40  48 2.41  51 2.48  47 2.54
  14  0.750  0.136  0.292-  68 2.33  65 2.34  52 2.34  66 2.42
  15  0.001  0.268  0.083-  68 2.40  67 2.41  45 2.48  49 2.54
  16  0.999  0.768  0.417-  62 2.40  66 2.41  56 2.48  53 2.54
  17  0.451  0.488  0.422-  53 2.32  65 2.35  62 2.39  55 2.50
  18  0.049  0.488  0.422-  53 2.32  52 2.35  62 2.39  55 2.50
  19  0.049  0.012  0.922-  47 2.32  46 2.35  58 2.39  49 2.50
  20  0.051  0.950  0.575-  63 2.36  50 2.37  56 2.42  64 2.44
  21  0.750  0.310  0.459-  52 2.46  65 2.46  53 2.51
  22  0.750  0.605  0.706-  48 2.32  50 2.35  61 2.35  60 2.46
  23  0.250  0.274  0.945-  46 2.37  57 2.37  49 2.40  51 2.61
  24  0.750  0.726  0.055-  54 2.37  59 2.37  47 2.40  45 2.61
  25  0.951  0.988  0.078-  49 2.32  59 2.35  68 2.39  47 2.50
  26  0.250  0.105  0.794-  64 2.32  57 2.35  46 2.35  58 2.46
  27  0.750  0.190  0.959-  46 2.46  57 2.46  47 2.51
  28  0.501  0.768  0.417-  62 2.40  66 2.41  56 2.48  53 2.54
  29  0.250  0.636  0.208-  62 2.33  59 2.34  54 2.34  67 2.42
  30  0.551  0.450  0.925-  51 2.36  57 2.37  45 2.42  48 2.44
  31  0.499  0.268  0.083-  68 2.40  67 2.41  45 2.48  49 2.54
  32  0.250  0.395  0.294-  67 2.32  65 2.35  52 2.35  62 2.46
  33  0.551  0.050  0.425-  56 2.36  65 2.37  63 2.42  66 2.44
  34  0.250  0.864  0.708-  58 2.33  50 2.34  61 2.34  64 2.42
  35  0.250  0.690  0.541-  50 2.46  61 2.46  55 2.51
  36  0.051  0.550  0.075-  45 2.36  59 2.37  51 2.42  67 2.44
  37  0.750  0.364  0.792-  60 2.33  57 2.34  46 2.34  48 2.42
  38  0.949  0.450  0.925-  51 2.36  46 2.37  45 2.42  48 2.44
  39  0.949  0.050  0.425-  56 2.36  52 2.37  63 2.42  66 2.44
  40  0.499  0.232  0.583-  60 2.40  64 2.41  63 2.48  55 2.54
  41  0.449  0.950  0.575-  63 2.36  61 2.37  56 2.42  64 2.44
  42  0.250  0.226  0.445-  52 2.37  65 2.37  55 2.40  56 2.61
  43  0.001  0.232  0.583-  60 2.40  64 2.41  63 2.48  55 2.54
  44  0.549  0.988  0.078-  49 2.32  54 2.35  68 2.39  47 2.50
  45  0.750  0.445  0.042-   8 2.36  36 2.36  30 2.42  38 2.42  15 2.48  31 2.48  24 2.61
  46  0.993  0.231  0.855-  37 2.34  19 2.35  26 2.35  38 2.37  23 2.37  27 2.46
  47  0.750  0.919  0.960-   5 2.32  19 2.32  24 2.40  25 2.50  44 2.50  27 2.51  13 2.54  10 2.54

  48  0.750  0.608  0.843-  22 2.32  13 2.41  10 2.41  37 2.42  30 2.44  38 2.44
  49  0.250  0.081  0.040-  25 2.32  44 2.32  23 2.40  19 2.50   5 2.50  12 2.51  31 2.54  15 2.54

  50  0.007  0.731  0.645-  34 2.34   7 2.35  22 2.35  20 2.37   9 2.37  35 2.46
  51  0.250  0.555  0.958-  30 2.36  38 2.36  36 2.42   8 2.42  13 2.48  10 2.48  23 2.61
  52  0.993  0.269  0.355-  14 2.34  18 2.35  32 2.35  39 2.37  42 2.37  21 2.46
  53  0.750  0.581  0.460-  17 2.32  18 2.32   9 2.40   7 2.50  11 2.50  21 2.51  16 2.54  28 2.54

  54  0.493  0.769  0.145-  29 2.34  44 2.35   6 2.35   8 2.37  24 2.37  12 2.46
  55  0.250  0.419  0.540-   7 2.32  11 2.32  42 2.40  18 2.50  17 2.50  35 2.51  40 2.54  43 2.54

  56  0.250  0.945  0.458-  33 2.36  39 2.36  20 2.42  41 2.42  28 2.48  16 2.48  42 2.61
  57  0.507  0.231  0.855-  37 2.34   5 2.35  26 2.35  30 2.37  23 2.37  27 2.46
  58  0.250  0.855  0.846-  34 2.33  19 2.39   5 2.39  10 2.40  13 2.40  26 2.46
  59  0.007  0.769  0.145-  29 2.34  25 2.35   6 2.35  36 2.37  24 2.37  12 2.46
  60  0.750  0.355  0.654-  37 2.33  11 2.39   7 2.39  40 2.40  43 2.40  22 2.46
  61  0.493  0.731  0.645-  34 2.34  11 2.35  22 2.35  41 2.37   9 2.37  35 2.46
  62  0.250  0.645  0.346-  29 2.33  18 2.39  17 2.39  28 2.40  16 2.40  32 2.46
  63  0.750  0.055  0.542-  20 2.36  41 2.36  39 2.42  33 2.42  40 2.48  43 2.48   9 2.61
  64  0.250  0.108  0.657-  26 2.32  40 2.41  43 2.41  34 2.42  41 2.44  20 2.44
  65  0.507  0.269  0.355-  14 2.34  17 2.35  32 2.35  33 2.37  42 2.37  21 2.46
  66  0.750  0.892  0.343-   6 2.32  16 2.41  28 2.41  14 2.42  33 2.44  39 2.44
  67  0.250  0.392  0.157-  32 2.32  31 2.41  15 2.41  29 2.42   8 2.44  36 2.44
  68  0.750  0.145  0.154-  14 2.33  25 2.39  44 2.39  31 2.40  15 2.40   6 2.46
 
  LATTYP: Found a simple orthorhombic cell.
 ALAT       =     6.8876042300
 B/A-ratio  =     1.3434367541
 C/A-ratio  =     2.4571967879
  
  Lattice vectors:
  
 A1 = (   6.8876042300,   0.0000000000,   0.0000000000)
 A2 = (   0.0000000000,   9.2530606700,   0.0000000000)
 A3 = (   0.0000000000,   0.0000000000,  16.9241989900)


Analysis of symmetry for initial positions (statically):
=====================================================================
 Subroutine PRICEL returns:
 Original cell was already a primitive cell.
 

 Routine SETGRP: Setting up the symmetry group for a 
 simple orthorhombic supercell.


 Subroutine GETGRP returns: Found  8 space group operations
 (whereof  2 operations were pure point group operations)
 out of a pool of  8 trial point group operations.


The static configuration has the point symmetry S_2 .
 The point group associated with its full space group is D_2h.


Analysis of symmetry for dynamics (positions and initial velocities):
=====================================================================
 Subroutine PRICEL returns:
 Original cell was already a primitive cell.
 

 Routine SETGRP: Setting up the symmetry group for a 
 simple orthorhombic supercell.


 Subroutine GETGRP returns: Found  8 space group operations
 (whereof  2 operations were pure point group operations)
 out of a pool of  8 trial point group operations.


The dynamic configuration has the point symmetry S_2 .
 The point group associated with its full space group is D_2h.


Analysis of structural, dynamic, and magnetic symmetry:
=====================================================================
 Subroutine PRICEL returns:
 Original cell was already a primitive cell.
 

 Routine SETGRP: Setting up the symmetry group for a 
 simple orthorhombic supercell.


 Subroutine GETGRP returns: Found  8 space group operations
 (whereof  2 operations were pure point group operations)
 out of a pool of  8 trial point group operations.


The overall configuration has the point symmetry S_2 .
 The point group associated with its full space group is D_2h.


 Subroutine INISYM returns: Found  8 space group operations
 (whereof  2 operations are pure point group operations),
 and found     1 'primitive' translations


----------------------------------------------------------------------------------------

                                     Primitive cell                                     

  volume of cell :    1078.6032

  direct lattice vectors                    reciprocal lattice vectors
     6.887604230  0.000000000  0.000000000     0.145188365  0.000000000  0.000000000
     0.000000000  9.253060670  0.000000000     0.000000000  0.108072349  0.000000000
     0.000000000  0.000000000 16.924198990     0.000000000  0.000000000  0.059086991

  length of vectors
     6.887604230  9.253060670 16.924198990     0.145188365  0.108072349  0.059086991

  position of ions in fractional coordinates (direct lattice)
     0.750000000  0.981931690  0.748824670
     0.250000000  0.018068310  0.251175330
     0.750000000  0.518068310  0.248824670
     0.250000000  0.481931690  0.751175330
     0.450959880  0.012450200  0.922412510
     0.750000000  0.895478260  0.205544940
     0.950959880  0.512450200  0.577587490
     0.448859660  0.549546910  0.075496430
     0.750000000  0.773584960  0.554615150
     0.998528810  0.731794340  0.916548630
     0.549040120  0.512450200  0.577587490
     0.250000000  0.810233650  0.040965930
     0.501471190  0.731794340  0.916548630
     0.750000000  0.136004930  0.292114850
     0.001471190  0.268205660  0.083451370
     0.998528810  0.768205660  0.416548630
     0.450959880  0.487549800  0.422412510
     0.049040120  0.487549800  0.422412510
     0.049040120  0.012450200  0.922412510
     0.051140340  0.950453090  0.575496430
     0.750000000  0.310233650  0.459034070
     0.750000000  0.604521740  0.705544940
     0.250000000  0.273584960  0.945384850
     0.750000000  0.726415040  0.054615150
     0.950959880  0.987549800  0.077587490
     0.250000000  0.104521740  0.794455060
     0.750000000  0.189766350  0.959034070
     0.501471190  0.768205660  0.416548630
     0.250000000  0.636004930  0.207885150
     0.551140340  0.450453090  0.924503570
     0.498528810  0.268205660  0.083451370
     0.250000000  0.395478260  0.294455060
     0.551140340  0.049546910  0.424503570
     0.250000000  0.863995070  0.707885150
     0.250000000  0.689766350  0.540965930
     0.051140340  0.549546910  0.075496430
     0.750000000  0.363995070  0.792114850
     0.948859660  0.450453090  0.924503570
     0.948859660  0.049546910  0.424503570
     0.498528810  0.231794340  0.583451370
     0.448859660  0.950453090  0.575496430
     0.250000000  0.226415040  0.445384850
     0.001471190  0.231794340  0.583451370
     0.549040120  0.987549800  0.077587490
     0.750000000  0.445277270  0.042317820
     0.993294050  0.230741960  0.854890480
     0.750000000  0.919006230  0.960061520
     0.750000000  0.608337280  0.842616370
     0.250000000  0.080993770  0.039938480
     0.006705950  0.730741960  0.645109520
     0.250000000  0.554722730  0.957682180
     0.993294050  0.269258040  0.354890480
     0.750000000  0.580993770  0.460061520
     0.493294050  0.769258040  0.145109520
     0.250000000  0.419006230  0.539938480
     0.250000000  0.945277270  0.457682180
     0.506705950  0.230741960  0.854890480
     0.250000000  0.855259240  0.845534430
     0.006705950  0.769258040  0.145109520
     0.750000000  0.355259240  0.654465570
     0.493294050  0.730741960  0.645109520
     0.250000000  0.644740760  0.345534430
     0.750000000  0.054722730  0.542317820
     0.250000000  0.108337280  0.657383630
     0.506705950  0.269258040  0.354890480
     0.750000000  0.891662720  0.342616370
     0.250000000  0.391662720  0.157383630
     0.750000000  0.144740760  0.154465570

  ion indices of the primitive-cell ions
   primitive index   ion index
                 1           1
                 2           2
                 3           3
                 4           4
                 5           5
                 6           6
                 7           7
                 8           8
                 9           9
                10          10
                11          11
                12          12
                13          13
                14          14
                15          15
                16          16
                17          17
                18          18
                19          19
                20          20
                21          21
                22          22
                23          23
                24          24
                25          25
                26          26
                27          27
                28          28
                29          29
                30          30
                31          31
                32          32
                33          33
                34          34
                35          35
                36          36
                37          37
                38          38
                39          39
                40          40
                41          41
                42          42
                43          43
                44          44
                45          45
                46          46
                47          47
                48          48
                49          49
                50          50
                51          51
                52          52
                53          53
                54          54
                55          55
                56          56
                57          57
                58          58
                59          59
                60          60
                61          61
                62          62
                63          63
                64          64
                65          65
                66          66
                67          67
                68          68

----------------------------------------------------------------------------------------

 
 
 KPOINTS: Kpoints from vasprun.xml                

Automatic generation of k-mesh.
 Grid dimensions read from file:
 generate k-points for:    4    3    1

 Generating k-lattice:

  Cartesian coordinates                     Fractional coordinates (reciprocal lattice)
     0.036297091  0.000000000  0.000000000     0.250000000  0.000000000  0.000000000
     0.000000000  0.036024116  0.000000000     0.000000000  0.333333333  0.000000000
     0.000000000  0.000000000  0.059086991     0.000000000  0.000000000  1.000000000

  Length of vectors
     0.036297091  0.036024116  0.059086991

  Shift w.r.t. Gamma in fractional coordinates (k-lattice)
     0.500000000  0.000000000  0.000000000

 
 Subroutine IBZKPT returns following result:
 ===========================================
 
 Found      4 irreducible k-points:
 
 Following reciprocal coordinates:
            Coordinates               Weight
  0.125000  0.000000  0.000000      2.000000
  0.375000  0.000000  0.000000      2.000000
  0.125000  0.333333  0.000000      4.000000
  0.375000  0.333333  0.000000      4.000000
 
 Following cartesian coordinates:
            Coordinates               Weight
  0.018149  0.000000  0.000000      2.000000
  0.054446  0.000000  0.000000      2.000000
  0.018149  0.036024  0.000000      4.000000
  0.054446  0.036024  0.000000      4.000000
 


--------------------------------------------------------------------------------------------------------




 Dimension of arrays:
   k-points           NKPTS =      4   k-points in BZ     NKDIM =      4   number of bands    NBANDS=    620
   number of dos      NEDOS =    301   number of ions     NIONS =     68
   non local maximal  LDIM  =      8   non local SUM 2l+1 LMDIM =     32
   total plane-waves  NPLWV = 476280
   max r-space proj   IRMAX =   8019   max aug-charges    IRDMAX=  25440
   dimension x,y,z NGX =    54 NGY =   70 NGZ =  126
   dimension x,y,z NGXF=   108 NGYF=  140 NGZF=  252
   support grid    NGXF=   108 NGYF=  140 NGZF=  252
   ions per type =               4  40  24
   NGX,Y,Z   is equivalent  to a cutoff of  13.03, 12.58, 12.38 a.u.
   NGXF,Y,Z  is equivalent  to a cutoff of  26.07, 25.15, 24.75 a.u.

 SYSTEM =  unknown system                          
 POSCAR =  Eu4 Ni40 P24                            

 Startparameter for this run:
   NWRITE =      2    write-flag & timer
   PREC   = accura    normal or accurate (medium, high low for compatibility)
   ISTART =      0    job   : 0-new  1-cont  2-samecut
   ICHARG =      1    charge: 1-file 2-atom 10-const
   ISPIN  =      2    spin polarized calculation?
   LNONCOLLINEAR =      F non collinear calculations
   LSORBIT =      F    spin-orbit coupling
   INIWAV =      1    electr: 0-lowe 1-rand  2-diag
   LASPH  =      F    aspherical Exc in radial PAW
 Electronic Relaxation 1
   ENCUT  =  520.0 eV  38.22 Ry    6.18 a.u.  12.81 17.20 31.47*2*pi/ulx,y,z
   ENINI  =  520.0     initial cutoff
   ENAUG  =  703.4 eV  augmentation charge cutoff
   NELM   =   1000;   NELMIN=  2; NELMDL=  6     # of ELM steps 
   EDIFF  = 0.3E-02   stopping-criterion for ELM
   LREAL  =      T    real-space projection
   NLSPLINE    = F    spline interpolate recip. space projectors
   LCOMPAT=      F    compatible to vasp.4.4
   GGA_COMPAT  = T    GGA compatible to vasp.4.4-vasp.4.6
   LMAXPAW     = -100 max onsite density
   LMAXMIX     =    2 max onsite mixed and CHGCAR
   VOSKOWN=      0    Vosko Wilk Nusair interpolation
   ROPT   =   -0.00025  -0.00025  -0.00025
 Ionic relaxation
   EDIFFG = 0.3E-01   stopping-criterion for IOM
   NSW    =     99    number of steps for IOM
   NBLOCK =      1;   KBLOCK =     99    inner block; outer block 
   IBRION =      2    ionic relax: 0-MD 1-quasi-New 2-CG
   NFREE  =      1    steps in history (QN), initial steepest desc. (CG)
   ISIF   =      3    stress and relaxation
   IWAVPR =     11    prediction:  0-non 1-charg 2-wave 3-comb
   ISYM   =      2    0-nonsym 1-usesym 2-fastsym
   LCORR  =      T    Harris-Foulkes like correction to forces

   POTIM  = 0.5000    time-step for ionic-motion
   TEIN   =    0.0    initial temperature
   TEBEG  =    0.0;   TEEND  =   0.0 temperature during run
   SMASS  =  -3.00    Nose mass-parameter (am)
   estimated Nose-frequenzy (Omega)   =  0.10E-29 period in steps = 0.13E+47 mass=  -0.108E-26a.u.
   SCALEE = 1.0000    scale energy and forces
   NPACO  =    256;   APACO  = 10.0  distance and # of slots for P.C.
   PSTRESS=    0.0 pullay stress

  Mass of Ions in am
   POMASS = 151.97 58.69 30.97
  Ionic Valenz
   ZVAL   =  17.00 16.00  5.00
  Atomic Wigner-Seitz radii
   RWIGS  =  -1.00 -1.00 -1.00
  virtual crystal weights 
   VCA    =   1.00  1.00  1.00
   NELECT =     828.0000    total number of electrons
   NUPDOWN=      -1.0000    fix difference up-down

 DOS related values:
   EMIN   =  10.00;   EMAX   =-10.00  energy-range for DOS
   EFERMI =   0.00
   ISMEAR =     0;   SIGMA  =   0.20  broadening in eV -4-tet -1-fermi 0-gaus

 Electronic relaxation 2 (details)
   IALGO  =     38    algorithm
   LDIAG  =      T    sub-space diagonalisation (order eigenvalues)
   LSUBROT=      F    optimize rotation matrix (better conditioning)
   TURBO    =      0    0=normal 1=particle mesh
   IRESTART =      0    0=no restart 2=restart with 2 vectors
   NREBOOT  =      0    no. of reboots
   NMIN     =      0    reboot dimension
   EREF     =   0.00    reference energy to select bands
   IMIX   =      4    mixing-type and parameters
     AMIX     =   0.40;   BMIX     =  0.00
     AMIX_MAG =   0.80;   BMIX_MAG =  0.00
     AMIN     =   0.10
     WC   =   100.;   INIMIX=   1;  MIXPRE=   1;  MAXMIX= -45

 Intra band minimization:
   WEIMIN = 0.0010     energy-eigenvalue tresh-hold
   EBREAK =  0.14E-05  absolut break condition
   DEPER  =   0.30     relativ break condition  

   TIME   =   0.40     timestep for ELM

  volume/ion in A,a.u.               =      15.86       107.04
  Fermi-wavevector in a.u.,A,eV,Ry     =   1.498986  2.832674 30.571752  2.246960
  Thomas-Fermi vector in A             =   2.610675
 
 Write flags
   LWAVE        =      F    write WAVECAR
   LDOWNSAMPLE  =      F    k-point downsampling of WAVECAR
   LCHARG       =      T    write CHGCAR
   LVTOT        =      F    write LOCPOT, total local potential
   LVHAR        =      F    write LOCPOT, Hartree potential only
   LELF         =      F    write electronic localiz. function (ELF)
   LORBIT       =     11    0 simple, 1 ext, 2 COOP (PROOUT), +10 PAW based schemes


 Dipole corrections
   LMONO  =      F    monopole corrections only (constant potential shift)
   LDIPOL =      F    correct potential (dipole corrections)
   IDIPOL =      0    1-x, 2-y, 3-z, 4-all directions 
   EPSILON=  1.0000000 bulk dielectric constant

 Exchange correlation treatment:
   GGA     =    --    GGA type
   LEXCH   =     8    internal setting for exchange type
   LIBXC   =     F    Libxc                    
   VOSKOWN =     0    Vosko Wilk Nusair interpolation
   LHFCALC =     F    Hartree Fock is set to
   LHFONE  =     F    Hartree Fock one center treatment
   AEXX    =    0.0000 exact exchange contribution

 Linear response parameters
   LEPSILON=     F    determine dielectric tensor
   LRPA    =     F    only Hartree local field effects (RPA)
   LNABLA  =     F    use nabla operator in PAW spheres
   LVEL    =     F    velocity operator in full k-point grid
   CSHIFT  =0.1000    complex shift for real part using Kramers Kronig
   OMEGAMAX=  -1.0    maximum frequency
   DEG_THRESHOLD= 0.2000000E-02 threshold for treating states as degnerate
   RTIME   =   -0.100 relaxation time in fs
  (WPLASMAI=    0.000 imaginary part of plasma frequency in eV, 0.658/RTIME)
   DFIELD  = 0.0000000 0.0000000 0.0000000 field for delta impulse in time
 
  Optional k-point grid parameters
   LKPOINTS_OPT  =     F    use optional k-point grid
   KPOINTS_OPT_MODE=     1    mode for optional k-point grid
 
 Orbital magnetization related:
   ORBITALMAG=     F  switch on orbital magnetization
   LCHIMAG   =     F  perturbation theory with respect to B field
   DQ        =  0.001000  dq finite difference perturbation B field
   LLRAUG    =     F  two centre corrections for induced B field



--------------------------------------------------------------------------------------------------------


 conjugate gradient relaxation of ions
 charge density and potential will be updated during run
 spin polarized calculation
 Variant of blocked Davidson
 Davidson routine will perform the subspace rotation
 perform sub-space diagonalisation
    after iterative eigenvector-optimisation
 modified Broyden-mixing scheme, WC =      100.0
 initial mixing is a Kerker type mixing with AMIX =  0.4000 and BMIX =      0.0010
 Hartree-type preconditioning will be used
 using additional bands           206
 real space projection scheme for non local part
 use partial core corrections
 calculate Harris-corrections to forces 
   (improved forces if not selfconsistent)
 use gradient corrections 
 use of overlap-Matrix (Vanderbilt PP)
 Gauss-broadening in eV      SIGMA  =   0.20


--------------------------------------------------------------------------------------------------------


  energy-cutoff  :      520.00
  volume of cell :     1078.60
      direct lattice vectors                 reciprocal lattice vectors
     6.887604230  0.000000000  0.000000000     0.145188365  0.000000000  0.000000000
     0.000000000  9.253060670  0.000000000     0.000000000  0.108072349  0.000000000
     0.000000000  0.000000000 16.924198990     0.000000000  0.000000000  0.059086991

  length of vectors
     6.887604230  9.253060670 16.924198990     0.145188365  0.108072349  0.059086991


 
 k-points in units of 2pi/SCALE and weight: Kpoints from vasprun.xml                
   0.01814855  0.00000000  0.00000000       0.167
   0.05444564  0.00000000  0.00000000       0.167
   0.01814855  0.03602412  0.00000000       0.333
   0.05444564  0.03602412  0.00000000       0.333
 
 k-points in reciprocal lattice and weights: Kpoints from vasprun.xml                
   0.12500000  0.00000000  0.00000000       0.167
   0.37500000  0.00000000  0.00000000       0.167
   0.12500000  0.33333333  0.00000000       0.333
   0.37500000  0.33333333  0.00000000       0.333
 
 position of ions in fractional coordinates (direct lattice) 
   0.75000000  0.98193169  0.74882467
   0.25000000  0.01806831  0.25117533
   0.75000000  0.51806831  0.24882467
   0.25000000  0.48193169  0.75117533
   0.45095988  0.01245020  0.92241251
   0.75000000  0.89547826  0.20554494
   0.95095988  0.51245020  0.57758749
   0.44885966  0.54954691  0.07549643
   0.75000000  0.77358496  0.55461515
   0.99852881  0.73179434  0.91654863
   0.54904012  0.51245020  0.57758749
   0.25000000  0.81023365  0.04096593
   0.50147119  0.73179434  0.91654863
   0.75000000  0.13600493  0.29211485
   0.00147119  0.26820566  0.08345137
   0.99852881  0.76820566  0.41654863
   0.45095988  0.48754980  0.42241251
   0.04904012  0.48754980  0.42241251
   0.04904012  0.01245020  0.92241251
   0.05114034  0.95045309  0.57549643
   0.75000000  0.31023365  0.45903407
   0.75000000  0.60452174  0.70554494
   0.25000000  0.27358496  0.94538485
   0.75000000  0.72641504  0.05461515
   0.95095988  0.98754980  0.07758749
   0.25000000  0.10452174  0.79445506
   0.75000000  0.18976635  0.95903407
   0.50147119  0.76820566  0.41654863
   0.25000000  0.63600493  0.20788515
   0.55114034  0.45045309  0.92450357
   0.49852881  0.26820566  0.08345137
   0.25000000  0.39547826  0.29445506
   0.55114034  0.04954691  0.42450357
   0.25000000  0.86399507  0.70788515
   0.25000000  0.68976635  0.54096593
   0.05114034  0.54954691  0.07549643
   0.75000000  0.36399507  0.79211485
   0.94885966  0.45045309  0.92450357
   0.94885966  0.04954691  0.42450357
   0.49852881  0.23179434  0.58345137
   0.44885966  0.95045309  0.57549643
   0.25000000  0.22641504  0.44538485
   0.00147119  0.23179434  0.58345137
   0.54904012  0.98754980  0.07758749
   0.75000000  0.44527727  0.04231782
   0.99329405  0.23074196  0.85489048
   0.75000000  0.91900623  0.96006152
   0.75000000  0.60833728  0.84261637
   0.25000000  0.08099377  0.03993848
   0.00670595  0.73074196  0.64510952
   0.25000000  0.55472273  0.95768218
   0.99329405  0.26925804  0.35489048
   0.75000000  0.58099377  0.46006152
   0.49329405  0.76925804  0.14510952
   0.25000000  0.41900623  0.53993848
   0.25000000  0.94527727  0.45768218
   0.50670595  0.23074196  0.85489048
   0.25000000  0.85525924  0.84553443
   0.00670595  0.76925804  0.14510952
   0.75000000  0.35525924  0.65446557
   0.49329405  0.73074196  0.64510952
   0.25000000  0.64474076  0.34553443
   0.75000000  0.05472273  0.54231782
   0.25000000  0.10833728  0.65738363
   0.50670595  0.26925804  0.35489048
   0.75000000  0.89166272  0.34261637
   0.25000000  0.39166272  0.15738363
   0.75000000  0.14474076  0.15446557
 
 position of ions in cartesian coordinates  (Angst):
   5.16570317  9.08587350 12.67325772
   1.72190106  0.16718717  4.25094127
   5.16570317  4.79371750  4.21115823
   1.72190106  4.45934317 12.71304076
   3.10603318  0.11520246 15.61109287
   5.16570317  8.28591467  3.47868347
   6.54983529  4.74173279  9.77520561
   3.09156769  5.08499090  1.27771660
   5.16570317  7.15802857  9.38641716
   6.87747126  6.77133743 15.51185140
   3.78157105  4.74173279  9.77520561
   1.72190106  7.49714112  0.69331555
   3.45393509  6.77133743 15.51185140
   5.16570317  1.25846187  4.94380985
   0.01013297  2.48172324  1.41234759
   6.87747126  7.10825358  7.04975190
   3.10603318  4.51132788  7.14899338
   0.33776894  4.51132788  7.14899338
   0.33776894  0.11520246 15.61109287
   0.35223442  8.79460011  9.73981610
   5.16570317  2.87061079  7.76878394
   5.16570317  5.59367634 11.94078296
   1.72190106  2.53149823 15.99988132
   5.16570317  6.72156244  0.92431767
   6.54983529  9.13785821  1.31310612
   1.72190106  0.96714600 13.44551552
   5.16570317  1.75591955 16.23088344
   3.45393509  7.10825358  7.04975190
   1.72190106  5.88499220  3.51828965
   3.79603654  4.16806977 15.64648239
   3.43366914  2.48172324  1.41234759
   1.72190106  3.65938433  4.98341603
   3.79603654  0.45846056  7.18438289
   1.72190106  7.99459880 11.98038914
   1.72190106  6.38244988  9.15541505
   0.35223442  5.08499090  1.27771660
   5.16570317  3.36806847 13.40590934
   6.53536981  4.16806977 15.64648239
   6.53536981  0.45846056  7.18438289
   3.43366914  2.14480709  9.87444709
   3.09156769  8.79460011  9.73981610
   1.72190106  2.09503210  7.53778183
   0.01013297  2.14480709  9.87444709
   3.78157105  9.13785821  1.31310612
   5.16570317  4.12017759  0.71619521
   6.84141630  2.13506935 14.46833660
   5.16570317  8.50362040 16.24827221
   5.16570317  5.62898176 14.26060712
   1.72190106  0.74944027  0.67592678
   0.04618793  6.76159969 10.91796189
   1.72190106  5.13288308 16.20800378
   6.84141630  2.49146098  6.00623710
   5.16570317  5.37597060  7.78617271
   3.39761419  7.11799132  2.45586239
   1.72190106  3.87709007  9.13802628
   1.72190106  8.74670793  7.74590429
   3.48999004  2.13506935 14.46833660
   1.72190106  7.91376564 14.30999295
   0.04618793  7.11799132  2.45586239
   5.16570317  3.28723530 11.07630554
   3.39761419  6.76159969 10.91796189
   1.72190106  5.96582537  5.84789345
   5.16570317  0.50635274  9.17829470
   1.72190106  1.00245142 11.12569137
   3.48999004  2.49146098  6.00623710
   5.16570317  8.25060925  5.79850762
   1.72190106  3.62407891  2.66359187
   5.16570317  1.33929503  2.61420604
 


--------------------------------------------------------------------------------------------------------


 k-point   1 :   0.1250 0.0000 0.0000  plane waves:   29047
 k-point   2 :   0.3750 0.0000 0.0000  plane waves:   29062
 k-point   3 :   0.1250 0.3333 0.0000  plane waves:   29040
 k-point   4 :   0.3750 0.3333 0.0000  plane waves:   29085

 maximum and minimum number of plane-waves per node :     29085    29040

 maximum number of plane-waves:     29085
 maximum index in each direction: 
   IXMAX=   12   IYMAX=   17   IZMAX=   31
   IXMIN=  -13   IYMIN=  -17   IZMIN=  -31


 serial   3D FFT for wavefunctions
 parallel 3D FFT for charge:
    minimum data exchange during FFTs selected (reduces bandwidth)


 total amount of memory used by VASP MPI-rank0   843213. kBytes
=======================================================================

   base      :      30000. kBytes
   nonlr-proj:      52071. kBytes
   fftplans  :      34127. kBytes
   grid      :     122592. kBytes
   one-center:       6684. kBytes
   wavefun   :     597739. kBytes
 
     INWAV:  cpu time      0.0003: real time      0.0005
 Broyden mixing: mesh for mixing (old mesh)
   NGX = 25   NGY = 35   NGZ = 63
  (NGX  =108   NGY  =140   NGZ  =252)
  gives a total of  55125 points

 initial charge density was supplied:
 charge density of overlapping atoms calculated
 number of electron     828.0000000 magnetization     242.4000000
 keeping initial charge density in first step


--------------------------------------------------------------------------------------------------------


 Maximum index for non-local projection operator          7742
 Maximum index for augmentation-charges          6127 (set IRDMAX)


--------------------------------------------------------------------------------------------------------


 First call to EWALD:  gamma=   0.173
 Maximum number of real-space cells 4x 3x 2
 Maximum number of reciprocal cells 2x 3x 4

    FEWALD:  cpu time      0.0063: real time      0.0063


--------------------------------------- Iteration      1(   1)  ---------------------------------------


    POTLOK:  cpu time      0.1533: real time      0.1946
    SETDIJ:  cpu time      0.0793: real time      0.0794
     EDDAV:  cpu time      6.4617: real time      6.4766
       DOS:  cpu time      0.0014: real time      0.0014
    --------------------------------------------
      LOOP:  cpu time      6.6958: real time      6.7520

 eigenvalue-minimisations  : 12968
 total energy-change (2. order) : 0.1366618E+05  (-0.3937549E+05)
 number of electron     828.0000000 magnetization     242.4000000
 augmentation part      828.0000000 magnetization     242.4000000

 Free energy of the ion-electron system (eV)
  ---------------------------------------------------
  alpha Z        PSCENC =      4523.72825607
  Ewald energy   TEWEN  =    -84756.42499564
  -Hartree energ DENC   =    -61451.51873993
  -exchange      EXHF   =         0.00000000
  -V(xc)+E(xc)   XCENC  =      4081.12843144
  PAW double counting   =    128672.38941077  -134629.28862070
  entropy T*S    EENTRO =        -0.27832819
  eigenvalues    EBANDS =      2479.59195448
  atomic energy  EATOM  =    154746.85511825
  Solvation  Ediel_sol  =         0.00000000
  ---------------------------------------------------
  free energy    TOTEN  =     13666.18248656 eV

  energy without entropy =    13666.46081475  energy(sigma->0) =    13666.32165066


--------------------------------------------------------------------------------------------------------




--------------------------------------- Iteration      1(   2)  ---------------------------------------


     EDDAV:  cpu time      5.2829: real time      5.2861
       DOS:  cpu time      0.0014: real time      0.0014
    --------------------------------------------
      LOOP:  cpu time      5.2843: real time      5.2875

 eigenvalue-minimisations  : 10168
 total energy-change (2. order) :-0.1190207E+05  (-0.1115086E+05)
 number of electron     828.0000000 magnetization     242.4000000
 augmentation part      828.0000000 magnetization     242.4000000

 Free energy of the ion-electron system (eV)
  ---------------------------------------------------
  alpha Z        PSCENC =      4523.72825607
  Ewald energy   TEWEN  =    -84756.42499564
  -Hartree energ DENC   =    -61451.51873993
  -exchange      EXHF   =         0.00000000
  -V(xc)+E(xc)   XCENC  =      4081.12843144
  PAW double counting   =    128672.38941077  -134629.28862070
  entropy T*S    EENTRO =        -0.71150040
  eigenvalues    EBANDS =     -9422.04931523
  atomic energy  EATOM  =    154746.85511825
  Solvation  Ediel_sol  =         0.00000000
  ---------------------------------------------------
  free energy    TOTEN  =      1764.10804464 eV

  energy without entropy =     1764.81954504  energy(sigma->0) =     1764.46379484


--------------------------------------------------------------------------------------------------------




--------------------------------------- Iteration      1(   3)  ---------------------------------------


     EDDAV:  cpu time      5.1861: real time      5.1899
       DOS:  cpu time      0.0016: real time      0.0016
    --------------------------------------------
      LOOP:  cpu time      5.1876: real time      5.1914

 eigenvalue-minimisations  :  9920
 total energy-change (2. order) :-0.1894658E+04  (-0.1607859E+04)
 number of electron     828.0000000 magnetization     242.4000000
 augmentation part      828.0000000 magnetization     242.4000000

 Free energy of the ion-electron system (eV)
  ---------------------------------------------------
  alpha Z        PSCENC =      4523.72825607
  Ewald energy   TEWEN  =    -84756.42499564
  -Hartree energ DENC   =    -61451.51873993
  -exchange      EXHF   =         0.00000000
  -V(xc)+E(xc)   XCENC  =      4081.12843144
  PAW double counting   =    128672.38941077  -134629.28862070
  entropy T*S    EENTRO =        -1.54049492
  eigenvalues    EBANDS =    -11315.87865509
  atomic energy  EATOM  =    154746.85511825
  Solvation  Ediel_sol  =         0.00000000
  ---------------------------------------------------
  free energy    TOTEN  =      -130.55028973 eV

  energy without entropy =     -129.00979482  energy(sigma->0) =     -129.78004228


--------------------------------------------------------------------------------------------------------




--------------------------------------- Iteration      1(   4)  ---------------------------------------


     EDDAV:  cpu time      5.6377: real time      5.6417
       DOS:  cpu time      0.0016: real time      0.0016
    --------------------------------------------
      LOOP:  cpu time      5.6393: real time      5.6433

 eigenvalue-minimisations  : 11040
 total energy-change (2. order) :-0.2190094E+03  (-0.2003377E+03)
 number of electron     828.0000000 magnetization     242.4000000
 augmentation part      828.0000000 magnetization     242.4000000

 Free energy of the ion-electron system (eV)
  ---------------------------------------------------
  alpha Z        PSCENC =      4523.72825607
  Ewald energy   TEWEN  =    -84756.42499564
  -Hartree energ DENC   =    -61451.51873993
  -exchange      EXHF   =         0.00000000
  -V(xc)+E(xc)   XCENC  =      4081.12843144
  PAW double counting   =    128672.38941077  -134629.28862070
  entropy T*S    EENTRO =        -1.74141901
  eigenvalues    EBANDS =    -11534.68709698
  atomic energy  EATOM  =    154746.85511825
  Solvation  Ediel_sol  =         0.00000000
  ---------------------------------------------------
  free energy    TOTEN  =      -349.55965572 eV

  energy without entropy =     -347.81823671  energy(sigma->0) =     -348.68894621


--------------------------------------------------------------------------------------------------------




--------------------------------------- Iteration      1(   5)  ---------------------------------------


     EDDAV:  cpu time      6.8543: real time      6.8597
       DOS:  cpu time      0.0017: real time      0.0017
    --------------------------------------------
      LOOP:  cpu time      6.8559: real time      6.8614

 eigenvalue-minimisations  : 14168
 total energy-change (2. order) :-0.1426550E+02  (-0.1356078E+02)
 number of electron     828.0000000 magnetization     242.4000000
 augmentation part      828.0000000 magnetization     242.4000000

 Free energy of the ion-electron system (eV)
  ---------------------------------------------------
  alpha Z        PSCENC =      4523.72825607
  Ewald energy   TEWEN  =    -84756.42499564
  -Hartree energ DENC   =    -61451.51873993
  -exchange      EXHF   =         0.00000000
  -V(xc)+E(xc)   XCENC  =      4081.12843144
  PAW double counting   =    128672.38941077  -134629.28862070
  entropy T*S    EENTRO =        -1.73755154
  eigenvalues    EBANDS =    -11548.95646644
  atomic energy  EATOM  =    154746.85511825
  Solvation  Ediel_sol  =         0.00000000
  ---------------------------------------------------
  free energy    TOTEN  =      -363.82515771 eV

  energy without entropy =     -362.08760617  energy(sigma->0) =     -362.95638194


--------------------------------------------------------------------------------------------------------




--------------------------------------- Iteration      1(   6)  ---------------------------------------


     EDDAV:  cpu time      8.5432: real time      8.5508
       DOS:  cpu time      0.0016: real time      0.0016
    CHARGE:  cpu time      0.2458: real time      0.2459
    MIXING:  cpu time      0.0079: real time      0.0079
    --------------------------------------------
      LOOP:  cpu time      8.7986: real time      8.8063

 eigenvalue-minimisations  : 18184
 total energy-change (2. order) :-0.9931230E+00  (-0.9842756E+00)
 number of electron     828.0000069 magnetization     143.3629522
 augmentation part      346.1646355 magnetization     117.5554832

 Broyden mixing:
  rms(total) = 0.16790E+02    rms(broyden)= 0.16789E+02
  rms(prec ) = 0.17511E+02
  weight for this iteration     100.00

 Free energy of the ion-electron system (eV)
  ---------------------------------------------------
  alpha Z        PSCENC =      4523.72825607
  Ewald energy   TEWEN  =    -84756.42499564
  -Hartree energ DENC   =    -61451.51873993
  -exchange      EXHF   =         0.00000000
  -V(xc)+E(xc)   XCENC  =      4081.12843144
  PAW double counting   =    128672.38941077  -134629.28862070
  entropy T*S    EENTRO =        -1.73707630
  eigenvalues    EBANDS =    -11549.95006472
  atomic energy  EATOM  =    154746.85511825
  Solvation  Ediel_sol  =         0.00000000
  ---------------------------------------------------
  free energy    TOTEN  =      -364.81828075 eV

  energy without entropy =     -363.08120445  energy(sigma->0) =     -363.94974260


--------------------------------------------------------------------------------------------------------




--------------------------------------- Iteration      1(   7)  ---------------------------------------


    POTLOK:  cpu time      0.0172: real time      0.0187
    SETDIJ:  cpu time      0.0770: real time      0.0771
     EDDAV:  cpu time      6.7310: real time      6.7348
       DOS:  cpu time      0.0015: real time      0.0015
    CHARGE:  cpu time      0.2319: real time      0.2320
    MIXING:  cpu time      0.0087: real time      0.0428
    --------------------------------------------
      LOOP:  cpu time      7.0673: real time      7.1068

 eigenvalue-minimisations  : 13704
 total energy-change (2. order) :-0.7143647E+03  (-0.1256065E+03)
 number of electron     828.0000070 magnetization     129.0005243
 augmentation part      428.2290216 magnetization     128.3663271

 Broyden mixing:
  rms(total) = 0.37790E+02    rms(broyden)= 0.37790E+02
  rms(prec ) = 0.39722E+02
  weight for this iteration     100.00

 eigenvalues of (default mixing * dielectric matrix)
  average eigenvalue GAMMA=   0.1053
  0.1053

 Free energy of the ion-electron system (eV)
  ---------------------------------------------------
  alpha Z        PSCENC =      4523.72825607
  Ewald energy   TEWEN  =    -84756.42499564
  -Hartree energ DENC   =    -56162.34502569
  -exchange      EXHF   =         0.00000000
  -V(xc)+E(xc)   XCENC  =      3878.77676299
  PAW double counting   =    126929.12512751  -132546.41852008
  entropy T*S    EENTRO =        -0.49645855
  eigenvalues    EBANDS =    -17691.98323827
  atomic energy  EATOM  =    154746.85511825
  Solvation  Ediel_sol  =         0.00000000
  ---------------------------------------------------
  free energy    TOTEN  =     -1079.18297341 eV

  energy without entropy =    -1078.68651486  energy(sigma->0) =    -1078.93474414


--------------------------------------------------------------------------------------------------------




--------------------------------------- Iteration      1(   8)  ---------------------------------------


    POTLOK:  cpu time      0.0174: real time      0.0186
    SETDIJ:  cpu time      0.0775: real time      0.0775
     EDDAV:  cpu time      6.0682: real time      6.0709
       DOS:  cpu time      0.0015: real time      0.0015
    CHARGE:  cpu time      0.2315: real time      0.2316
    MIXING:  cpu time      0.0084: real time      0.0084
    --------------------------------------------
      LOOP:  cpu time      6.4044: real time      6.4084

 eigenvalue-minimisations  : 12104
 total energy-change (2. order) : 0.4385384E+03  (-0.4342765E+02)
 number of electron     828.0000080 magnetization     110.1098659
 augmentation part      444.2129118 magnetization     108.9911403

 Broyden mixing:
  rms(total) = 0.20796E+02    rms(broyden)= 0.20796E+02
  rms(prec ) = 0.21772E+02
  weight for this iteration     100.00

 eigenvalues of (default mixing * dielectric matrix)
  average eigenvalue GAMMA=   0.2538
  0.2538  0.2538

 Free energy of the ion-electron system (eV)
  ---------------------------------------------------
  alpha Z        PSCENC =      4523.72825607
  Ewald energy   TEWEN  =    -84756.42499564
  -Hartree energ DENC   =    -57278.50910536
  -exchange      EXHF   =         0.00000000
  -V(xc)+E(xc)   XCENC  =      3892.04137295
  PAW double counting   =    129886.26926638  -135581.60414300
  entropy T*S    EENTRO =        -0.53788905
  eigenvalues    EBANDS =    -16072.46241411
  atomic energy  EATOM  =    154746.85511825
  Solvation  Ediel_sol  =         0.00000000
  ---------------------------------------------------
  free energy    TOTEN  =      -640.64453351 eV

  energy without entropy =     -640.10664446  energy(sigma->0) =     -640.37558898


--------------------------------------------------------------------------------------------------------




--------------------------------------- Iteration      1(   9)  ---------------------------------------


    POTLOK:  cpu time      0.0170: real time      0.0182
    SETDIJ:  cpu time      0.0775: real time      0.0775
     EDDAV:  cpu time      6.5364: real time      6.5398
       DOS:  cpu time      0.0016: real time      0.0016
    CHARGE:  cpu time      0.2318: real time      0.2319
    MIXING:  cpu time      0.0086: real time      0.0086
    --------------------------------------------
      LOOP:  cpu time      6.8728: real time      6.8776

 eigenvalue-minimisations  : 13200
 total energy-change (2. order) :-0.7535024E+02  (-0.3257148E+02)
 number of electron     828.0000066 magnetization      84.2701992
 augmentation part      393.5355795 magnetization      81.9822029

 Broyden mixing:
  rms(total) = 0.18404E+02    rms(broyden)= 0.18404E+02
  rms(prec ) = 0.20600E+02
  weight for this iteration     100.00

 eigenvalues of (default mixing * dielectric matrix)
  average eigenvalue GAMMA=   0.3994
  0.5106  0.5106  0.1770

 Free energy of the ion-electron system (eV)
  ---------------------------------------------------
  alpha Z        PSCENC =      4523.72825607
  Ewald energy   TEWEN  =    -84756.42499564
  -Hartree energ DENC   =    -59292.83759186
  -exchange      EXHF   =         0.00000000
  -V(xc)+E(xc)   XCENC  =      3954.73673559
  PAW double counting   =    135260.14144907  -141271.32076224
  entropy T*S    EENTRO =        -0.69148469
  eigenvalues    EBANDS =    -13880.18149495
  atomic energy  EATOM  =    154746.85511825
  Solvation  Ediel_sol  =         0.00000000
  ---------------------------------------------------
  free energy    TOTEN  =      -715.99477040 eV

  energy without entropy =     -715.30328570  energy(sigma->0) =     -715.64902805


--------------------------------------------------------------------------------------------------------




--------------------------------------- Iteration      1(  10)  ---------------------------------------


    POTLOK:  cpu time      0.0176: real time      0.0183
    SETDIJ:  cpu time      0.0785: real time      0.0785
     EDDAV:  cpu time      6.9945: real time      6.9981
       DOS:  cpu time      0.0016: real time      0.0016
    CHARGE:  cpu time      0.2365: real time      0.2367
    MIXING:  cpu time      0.0090: real time      0.0090
    --------------------------------------------
      LOOP:  cpu time      7.3376: real time      7.3422

 eigenvalue-minimisations  : 14448
 total energy-change (2. order) : 0.5616965E+02  (-0.1718402E+02)
 number of electron     828.0000094 magnetization      67.0656548
 augmentation part      385.5432721 magnetization      47.1449676

 Broyden mixing:
  rms(total) = 0.19344E+02    rms(broyden)= 0.19344E+02
  rms(prec ) = 0.22906E+02
  weight for this iteration     100.00

 eigenvalues of (default mixing * dielectric matrix)
  average eigenvalue GAMMA=   0.3906
  0.7692  0.3148  0.3148  0.1637

 Free energy of the ion-electron system (eV)
  ---------------------------------------------------
  alpha Z        PSCENC =      4523.72825607
  Ewald energy   TEWEN  =    -84756.42499564
  -Hartree energ DENC   =    -60322.49555208
  -exchange      EXHF   =         0.00000000
  -V(xc)+E(xc)   XCENC  =      3952.86605379
  PAW double counting   =    137703.63156274  -143662.75008808
  entropy T*S    EENTRO =        -1.82874805
  eigenvalues    EBANDS =    -12843.40672743
  atomic energy  EATOM  =    154746.85511825
  Solvation  Ediel_sol  =         0.00000000
  ---------------------------------------------------
  free energy    TOTEN  =      -659.82512042 eV

  energy without entropy =     -657.99637237  energy(sigma->0) =     -658.91074640


--------------------------------------------------------------------------------------------------------




--------------------------------------- Iteration      1(  11)  ---------------------------------------


    POTLOK:  cpu time      0.0172: real time      0.0186
    SETDIJ:  cpu time      0.0781: real time      0.0781
     EDDAV:  cpu time      6.2319: real time      6.2347
       DOS:  cpu time      0.0015: real time      0.0015
    CHARGE:  cpu time      0.2323: real time      0.2324
    MIXING:  cpu time      0.0092: real time      0.0092
    --------------------------------------------
      LOOP:  cpu time      6.5702: real time      6.5745

 eigenvalue-minimisations  : 12468
 total energy-change (2. order) :-0.8261826E-01  (-0.4488206E+02)
 number of electron     828.0000058 magnetization      53.4183990
 augmentation part      371.9139490 magnetization      48.7305254

 Broyden mixing:
  rms(total) = 0.17809E+02    rms(broyden)= 0.17808E+02
  rms(prec ) = 0.21164E+02
  weight for this iteration     100.00

 eigenvalues of (default mixing * dielectric matrix)
  average eigenvalue GAMMA=   0.4615
  1.1066  0.3809  0.3809  0.3174  0.1217

 Free energy of the ion-electron system (eV)
  ---------------------------------------------------
  alpha Z        PSCENC =      4523.72825607
  Ewald energy   TEWEN  =    -84756.42499564
  -Hartree energ DENC   =    -59813.85957392
  -exchange      EXHF   =         0.00000000
  -V(xc)+E(xc)   XCENC  =      3943.01252453
  PAW double counting   =    140305.85054388  -146385.46141364
  entropy T*S    EENTRO =        -0.97565248
  eigenvalues    EBANDS =    -13222.63254573
  atomic energy  EATOM  =    154746.85511825
  Solvation  Ediel_sol  =         0.00000000
  ---------------------------------------------------
  free energy    TOTEN  =      -659.90773868 eV

  energy without entropy =     -658.93208620  energy(sigma->0) =     -659.41991244


--------------------------------------------------------------------------------------------------------




--------------------------------------- Iteration      1(  12)  ---------------------------------------


    POTLOK:  cpu time      0.0175: real time      0.0185
    SETDIJ:  cpu time      0.0785: real time      0.0785
     EDDAV:  cpu time      6.3019: real time      6.3050
       DOS:  cpu time      0.0016: real time      0.0016
    CHARGE:  cpu time      0.2323: real time      0.2323
    MIXING:  cpu time      0.0094: real time      0.0094
    --------------------------------------------
      LOOP:  cpu time      6.6411: real time      6.6453

 eigenvalue-minimisations  : 12608
 total energy-change (2. order) :-0.2311578E+02  (-0.1817573E+02)
 number of electron     828.0000058 magnetization      39.7590717
 augmentation part      376.9260542 magnetization      37.3615346

 Broyden mixing:
  rms(total) = 0.16572E+02    rms(broyden)= 0.16572E+02
  rms(prec ) = 0.18558E+02
  weight for this iteration     100.00

 eigenvalues of (default mixing * dielectric matrix)
  average eigenvalue GAMMA=   0.4756
  1.3819  0.5203  0.3360  0.3360  0.1282  0.1515

 Free energy of the ion-electron system (eV)
  ---------------------------------------------------
  alpha Z        PSCENC =      4523.72825607
  Ewald energy   TEWEN  =    -84756.42499564
  -Hartree energ DENC   =    -59770.55736435
  -exchange      EXHF   =         0.00000000
  -V(xc)+E(xc)   XCENC  =      3930.51706946
  PAW double counting   =    142432.21364233  -148530.55202491
  entropy T*S    EENTRO =        -0.86571533
  eigenvalues    EBANDS =    -13257.93750127
  atomic energy  EATOM  =    154746.85511825
  Solvation  Ediel_sol  =         0.00000000
  ---------------------------------------------------
  free energy    TOTEN  =      -683.02351537 eV

  energy without entropy =     -682.15780004  energy(sigma->0) =     -682.59065771


--------------------------------------------------------------------------------------------------------




--------------------------------------- Iteration      1(  13)  ---------------------------------------


    POTLOK:  cpu time      0.0175: real time      0.0181
    SETDIJ:  cpu time      0.0777: real time      0.0777
     EDDAV:  cpu time      7.2571: real time      7.2607
       DOS:  cpu time      0.0016: real time      0.0016
    CHARGE:  cpu time      0.2385: real time      0.2386
    MIXING:  cpu time      0.0100: real time      0.0100
    --------------------------------------------
      LOOP:  cpu time      7.6024: real time      7.6068

 eigenvalue-minimisations  : 14896
 total energy-change (2. order) : 0.1937253E+03  (-0.9996132E+01)
 number of electron     828.0000082 magnetization      31.9547892
 augmentation part      392.1000464 magnetization      26.6384992

 Broyden mixing:
  rms(total) = 0.10712E+02    rms(broyden)= 0.10711E+02
  rms(prec ) = 0.11758E+02
  weight for this iteration     100.00

 eigenvalues of (default mixing * dielectric matrix)
  average eigenvalue GAMMA=   0.4935
  1.7247  0.4181  0.4181  0.2801  0.2801  0.2046  0.1288

 Free energy of the ion-electron system (eV)
  ---------------------------------------------------
  alpha Z        PSCENC =      4523.72825607
  Ewald energy   TEWEN  =    -84756.42499564
  -Hartree energ DENC   =    -59515.21551486
  -exchange      EXHF   =         0.00000000
  -V(xc)+E(xc)   XCENC  =      3917.38552249
  PAW double counting   =    144643.34830561  -150712.63042871
  entropy T*S    EENTRO =        -1.43211264
  eigenvalues    EBANDS =    -13334.91239530
  atomic energy  EATOM  =    154746.85511825
  Solvation  Ediel_sol  =         0.00000000
  ---------------------------------------------------
  free energy    TOTEN  =      -489.29824473 eV

  energy without entropy =     -487.86613209  energy(sigma->0) =     -488.58218841


--------------------------------------------------------------------------------------------------------




--------------------------------------- Iteration      1(  14)  ---------------------------------------


    POTLOK:  cpu time      0.0174: real time      0.0181
    SETDIJ:  cpu time      0.0802: real time      0.0803
     EDDAV:  cpu time      6.2259: real time      6.2294
       DOS:  cpu time      0.0016: real time      0.0016
    CHARGE:  cpu time      0.2348: real time      0.2348
    MIXING:  cpu time      0.0098: real time      0.0098
    --------------------------------------------
      LOOP:  cpu time      6.5697: real time      6.5741

 eigenvalue-minimisations  : 12464
 total energy-change (2. order) :-0.8845382E+02  (-0.9695629E+01)
 number of electron     828.0000033 magnetization      25.4303053
 augmentation part      391.9303966 magnetization      22.9002635

 Broyden mixing:
  rms(total) = 0.20312E+02    rms(broyden)= 0.20311E+02
  rms(prec ) = 0.23956E+02
  weight for this iteration     100.00

 eigenvalues of (default mixing * dielectric matrix)
  average eigenvalue GAMMA=   0.4758
  1.8877  0.4573  0.4573  0.2802  0.2802  0.2198  0.1330  0.0907

 Free energy of the ion-electron system (eV)
  ---------------------------------------------------
  alpha Z        PSCENC =      4523.72825607
  Ewald energy   TEWEN  =    -84756.42499564
  -Hartree energ DENC   =    -59736.28764634
  -exchange      EXHF   =         0.00000000
  -V(xc)+E(xc)   XCENC  =      3923.42609073
  PAW double counting   =    146007.59783366  -152103.90666203
  entropy T*S    EENTRO =        -1.73714070
  eigenvalues    EBANDS =    -13181.00292225
  atomic energy  EATOM  =    154746.85511825
  Solvation  Ediel_sol  =         0.00000000
  ---------------------------------------------------
  free energy    TOTEN  =      -577.75206823 eV

  energy without entropy =     -576.01492754  energy(sigma->0) =     -576.88349788


--------------------------------------------------------------------------------------------------------




--------------------------------------- Iteration      1(  15)  ---------------------------------------


    POTLOK:  cpu time      0.0171: real time      0.0184
    SETDIJ:  cpu time      0.0785: real time      0.0785
     EDDAV:  cpu time      6.6160: real time      6.6190
       DOS:  cpu time      0.0017: real time      0.0017
    CHARGE:  cpu time      0.2333: real time      0.2334
    MIXING:  cpu time      0.0100: real time      0.0100
    --------------------------------------------
      LOOP:  cpu time      6.9567: real time      6.9610

 eigenvalue-minimisations  : 13432
 total energy-change (2. order) : 0.1253229E+03  (-0.5150029E+01)
 number of electron     828.0000089 magnetization      25.5385364
 augmentation part      385.6426043 magnetization      24.1491389

 Broyden mixing:
  rms(total) = 0.83498E+01    rms(broyden)= 0.83484E+01
  rms(prec ) = 0.96776E+01
  weight for this iteration     100.00

 eigenvalues of (default mixing * dielectric matrix)
  average eigenvalue GAMMA=   0.4408
  1.8822  0.4406  0.4406  0.2856  0.2856  0.2697  0.1354  0.1354  0.0925

 Free energy of the ion-electron system (eV)
  ---------------------------------------------------
  alpha Z        PSCENC =      4523.72825607
  Ewald energy   TEWEN  =    -84756.42499564
  -Hartree energ DENC   =    -59724.10596797
  -exchange      EXHF   =         0.00000000
  -V(xc)+E(xc)   XCENC  =      3925.47794756
  PAW double counting   =    146369.58382439  -152499.37635684
  entropy T*S    EENTRO =        -2.19174782
  eigenvalues    EBANDS =    -13035.97527987
  atomic energy  EATOM  =    154746.85511825
  Solvation  Ediel_sol  =         0.00000000
  ---------------------------------------------------
  free energy    TOTEN  =      -452.42920186 eV

  energy without entropy =     -450.23745404  energy(sigma->0) =     -451.33332795


--------------------------------------------------------------------------------------------------------




--------------------------------------- Iteration      1(  16)  ---------------------------------------


    POTLOK:  cpu time      0.0171: real time      0.0183
    SETDIJ:  cpu time      0.0777: real time      0.0778
     EDDAV:  cpu time      6.6459: real time      6.6483
       DOS:  cpu time      0.0016: real time      0.0016
    CHARGE:  cpu time      0.2322: real time      0.2322
    MIXING:  cpu time      0.0104: real time      0.0104
    --------------------------------------------
      LOOP:  cpu time      6.9849: real time      6.9886

 eigenvalue-minimisations  : 13520
 total energy-change (2. order) : 0.2610184E+02  (-0.1910013E+01)
 number of electron     828.0000062 magnetization      27.9180083
 augmentation part      393.6820921 magnetization      25.8386416

 Broyden mixing:
  rms(total) = 0.69815E+01    rms(broyden)= 0.69811E+01
  rms(prec ) = 0.73775E+01
  weight for this iteration     100.00

 eigenvalues of (default mixing * dielectric matrix)
  average eigenvalue GAMMA=   0.4185
  1.8288  0.4239  0.4239  0.3654  0.3654  0.2022  0.2022  0.1632  0.1301  0.0795

 Free energy of the ion-electron system (eV)
  ---------------------------------------------------
  alpha Z        PSCENC =      4523.72825607
  Ewald energy   TEWEN  =    -84756.42499564
  -Hartree energ DENC   =    -59779.99631652
  -exchange      EXHF   =         0.00000000
  -V(xc)+E(xc)   XCENC  =      3926.25545198
  PAW double counting   =    146197.32780311  -152320.47562171
  entropy T*S    EENTRO =        -0.93207594
  eigenvalues    EBANDS =    -12962.66498311
  atomic energy  EATOM  =    154746.85511825
  Solvation  Ediel_sol  =         0.00000000
  ---------------------------------------------------
  free energy    TOTEN  =      -426.32736350 eV

  energy without entropy =     -425.39528755  energy(sigma->0) =     -425.86132553


--------------------------------------------------------------------------------------------------------




--------------------------------------- Iteration      1(  17)  ---------------------------------------


    POTLOK:  cpu time      0.0172: real time      0.0184
    SETDIJ:  cpu time      0.0776: real time      0.0776
[...]
  Ewald energy   TEWEN  =    -92387.43697201
  -Hartree energ DENC   =    -55712.49471676
  -exchange      EXHF   =         0.00000000
  -V(xc)+E(xc)   XCENC  =      4276.57653671
  PAW double counting   =    156449.15016601  -162502.48965889
  entropy T*S    EENTRO =        -0.61559224
  eigenvalues    EBANDS =    -10670.17592566
  atomic energy  EATOM  =    154746.85511825
  Solvation  Ediel_sol  =         0.00000000
  ---------------------------------------------------
  free energy    TOTEN  =        95.04166795 eV

  energy without entropy =       95.65726019  energy(sigma->0) =       95.34946407


--------------------------------------------------------------------------------------------------------




--------------------------------------- Iteration      2(  63)  ---------------------------------------


    POTLOK:  cpu time      0.0171: real time      0.0180
    SETDIJ:  cpu time      0.0840: real time      0.0840
     EDDAV:  cpu time      8.9137: real time      8.9184
       DOS:  cpu time      0.0015: real time      0.0015
    CHARGE:  cpu time      0.2411: real time      0.2412
    MIXING:  cpu time      0.0266: real time      0.0266
    --------------------------------------------
      LOOP:  cpu time      9.2841: real time      9.2897

 eigenvalue-minimisations  : 17776
 total energy-change (2. order) : 0.2274062E+03  (-0.9287937E+01)
 number of electron     827.9999751 magnetization      21.8467588
 augmentation part      373.6332412 magnetization      15.6749408

 Broyden mixing:
  rms(total) = 0.15733E+02    rms(broyden)= 0.15733E+02
  rms(prec ) = 0.16624E+02
  weight for this iteration     100.00

 eigenvalues of (default mixing * dielectric matrix)
  average eigenvalue GAMMA=   0.4400
  2.4446  1.9900  1.1568  1.0806  1.0806  0.8905  0.8905  0.8057  0.7055  0.7055
  0.5343  0.5343  0.4519  0.4519  0.3275  0.3275  0.2689  0.2689  0.3814  0.3814
  0.3488  0.3488  0.3065  0.1308  0.1308  0.1788  0.1788  0.1910  0.1910  0.0738
  0.1383  0.1089  0.1089  0.0442  0.0442  0.1049  0.0062  0.0062  0.0001  0.0059
  0.0744  0.0813

 Free energy of the ion-electron system (eV)
  ---------------------------------------------------
  alpha Z        PSCENC =      5895.67271254
  Ewald energy   TEWEN  =    -92387.43697201
  -Hartree energ DENC   =    -55678.03736953
  -exchange      EXHF   =         0.00000000
  -V(xc)+E(xc)   XCENC  =      4429.20631278
  PAW double counting   =    157579.41065406  -163569.49237134
  entropy T*S    EENTRO =        -0.59929347
  eigenvalues    EBANDS =    -10693.13094274
  atomic energy  EATOM  =    154746.85511825
  Solvation  Ediel_sol  =         0.00000000
  ---------------------------------------------------
  free energy    TOTEN  =       322.44784854 eV

  energy without entropy =      323.04714201  energy(sigma->0) =      322.74749528


--------------------------------------------------------------------------------------------------------




--------------------------------------- Iteration      2(  64)  ---------------------------------------


    POTLOK:  cpu time      0.0177: real time      0.0187
    SETDIJ:  cpu time      0.0841: real time      0.0841
     EDDAV:  cpu time      9.3290: real time      9.3327
       DOS:  cpu time      0.0015: real time      0.0015
    CHARGE:  cpu time      0.2371: real time      0.2372
    MIXING:  cpu time      0.0268: real time      0.0268
    --------------------------------------------
      LOOP:  cpu time      9.6962: real time      9.7010

 eigenvalue-minimisations  : 18704
 total energy-change (2. order) : 0.5996330E+01  (-0.1471103E+01)
 number of electron     827.9999751 magnetization      21.7277155
 augmentation part      371.6708632 magnetization      14.2404339

 Broyden mixing:
  rms(total) = 0.15830E+02    rms(broyden)= 0.15830E+02
  rms(prec ) = 0.16695E+02
  weight for this iteration     100.00

 eigenvalues of (default mixing * dielectric matrix)
  average eigenvalue GAMMA=   0.4295
  2.4499  2.0068  1.2592  1.0718  1.0718  0.8546  0.8546  0.7943  0.7032  0.7032
  0.5491  0.5491  0.3548  0.3548  0.2652  0.2652  0.3839  0.3839  0.3842  0.3842
  0.3543  0.3543  0.3022  0.1342  0.1342  0.1736  0.1736  0.1922  0.1922  0.0698
  0.1380  0.1149  0.1149  0.1033  0.0362  0.0362  0.0736  0.0812  0.0184  0.0184
  0.0025  0.0003  0.0059

 Free energy of the ion-electron system (eV)
  ---------------------------------------------------
  alpha Z        PSCENC =      5895.67271254
  Ewald energy   TEWEN  =    -92387.43697201
  -Hartree energ DENC   =    -55678.19936573
  -exchange      EXHF   =         0.00000000
  -V(xc)+E(xc)   XCENC  =      4434.55044410
  PAW double counting   =    157577.18825055  -163565.28854761
  entropy T*S    EENTRO =        -0.59613318
  eigenvalues    EBANDS =    -10694.30132884
  atomic energy  EATOM  =    154746.85511825
  Solvation  Ediel_sol  =         0.00000000
  ---------------------------------------------------
  free energy    TOTEN  =       328.44417808 eV

  energy without entropy =      329.04031126  energy(sigma->0) =      328.74224467


--------------------------------------------------------------------------------------------------------




--------------------------------------- Iteration      2(  65)  ---------------------------------------


    POTLOK:  cpu time      0.0175: real time      0.0182
    SETDIJ:  cpu time      0.0834: real time      0.0834
     EDDAV:  cpu time      8.1372: real time      8.1435
       DOS:  cpu time      0.0015: real time      0.0015
    CHARGE:  cpu time      0.2387: real time      0.2387
    MIXING:  cpu time      0.0294: real time      0.0294
    --------------------------------------------
      LOOP:  cpu time      8.5076: real time      8.5147

 eigenvalue-minimisations  : 15880
 total energy-change (2. order) :-0.5150110E+01  (-0.1001380E+00)
 number of electron     827.9999750 magnetization      23.5056992
 augmentation part      371.2226698 magnetization      15.9183771

 Broyden mixing:
  rms(total) = 0.15774E+02    rms(broyden)= 0.15774E+02
  rms(prec ) = 0.16635E+02
  weight for this iteration     100.00

 eigenvalues of (default mixing * dielectric matrix)
  average eigenvalue GAMMA=   0.4381
  2.3917  2.1235  1.1981  1.1122  1.1122  0.9050  0.9050  0.7856  0.7196  0.7196
  0.5369  0.5369  0.4668  0.4668  0.3069  0.3069  0.2750  0.2750  0.4103  0.4103
  0.3329  0.3329  0.3101  0.3101  0.1644  0.1393  0.1393  0.2103  0.2103  0.1820
  0.0884  0.0884  0.1245  0.1245  0.1293  0.1293  0.0389  0.0982  0.0638  0.0678
  0.0160  0.0055  0.0001  0.0059

 Free energy of the ion-electron system (eV)
  ---------------------------------------------------
  alpha Z        PSCENC =      5895.67271254
  Ewald energy   TEWEN  =    -92387.43697201
  -Hartree energ DENC   =    -55685.27904138
  -exchange      EXHF   =         0.00000000
  -V(xc)+E(xc)   XCENC  =      4431.68425080
  PAW double counting   =    157658.56792807  -163649.24039985
  entropy T*S    EENTRO =        -0.59731198
  eigenvalues    EBANDS =    -10686.93221621
  atomic energy  EATOM  =    154746.85511825
  Solvation  Ediel_sol  =         0.00000000
  ---------------------------------------------------
  free energy    TOTEN  =       323.29406823 eV

  energy without entropy =      323.89138021  energy(sigma->0) =      323.59272422


--------------------------------------------------------------------------------------------------------




--------------------------------------- Iteration      2(  66)  ---------------------------------------


    POTLOK:  cpu time      0.0172: real time      0.0181
    SETDIJ:  cpu time      0.0833: real time      0.0833
     EDDAV:  cpu time      8.1135: real time      8.1186
       DOS:  cpu time      0.0015: real time      0.0015
    CHARGE:  cpu time      0.2378: real time      0.2379
    MIXING:  cpu time      0.0304: real time      0.0304
    --------------------------------------------
      LOOP:  cpu time      8.4837: real time      8.4898

 eigenvalue-minimisations  : 15792
 total energy-change (2. order) : 0.5266915E+02  (-0.1148498E+00)
 number of electron     827.9999750 magnetization      23.0059781
 augmentation part      370.0866977 magnetization      14.0062067

 Broyden mixing:
  rms(total) = 0.16648E+02    rms(broyden)= 0.16648E+02
  rms(prec ) = 0.17517E+02
  weight for this iteration     100.00

 eigenvalues of (default mixing * dielectric matrix)
  average eigenvalue GAMMA=   0.4195
  2.2835  1.3778  1.1359  1.1359  1.1014  0.9507  0.7455  0.7455  0.3125  0.3125
  0.3251  0.3251  0.4902  0.4604  0.4604  0.3910  0.3910  0.3886  0.3886  0.3181
  0.3181  0.1515  0.3145  0.3145  0.0996  0.0996  0.1563  0.1563  0.2809  0.1740
  0.1653  0.1653  0.0939  0.0939  0.1004  0.0355  0.0038  0.0002  0.0114  0.0058

 Free energy of the ion-electron system (eV)
  ---------------------------------------------------
  alpha Z        PSCENC =      5895.67271254
  Ewald energy   TEWEN  =    -92387.43697201
  -Hartree energ DENC   =    -55676.33862139
  -exchange      EXHF   =         0.00000000
  -V(xc)+E(xc)   XCENC  =      4471.61096995
  PAW double counting   =    157910.79804806  -163887.50854390
  entropy T*S    EENTRO =        -0.66986918
  eigenvalues    EBANDS =    -10697.01961950
  atomic energy  EATOM  =    154746.85511825
  Solvation  Ediel_sol  =         0.00000000
  ---------------------------------------------------
  free energy    TOTEN  =       375.96322284 eV

  energy without entropy =      376.63309201  energy(sigma->0) =      376.29815743


--------------------------------------------------------------------------------------------------------




--------------------------------------- Iteration      2(  67)  ---------------------------------------


    POTLOK:  cpu time      0.0171: real time      0.0181
    SETDIJ:  cpu time      0.0826: real time      0.0826
     EDDAV:  cpu time      7.3872: real time      7.3911
       DOS:  cpu time      0.0015: real time      0.0015
    CHARGE:  cpu time      0.2403: real time      0.2405
    MIXING:  cpu time      0.0266: real time      0.0266
    --------------------------------------------
      LOOP:  cpu time      7.7553: real time      7.7603

 eigenvalue-minimisations  : 14216
 total energy-change (2. order) : 0.6803789E+02  (-0.1429293E+01)
 number of electron     827.9999752 magnetization      14.7597759
 augmentation part      363.3089102 magnetization       2.8228161

 Broyden mixing:
  rms(total) = 0.16598E+02    rms(broyden)= 0.16598E+02
  rms(prec ) = 0.17282E+02
  weight for this iteration     100.00

 eigenvalues of (default mixing * dielectric matrix)
  average eigenvalue GAMMA=   0.4247
  2.3234  1.3256  1.1616  1.1616  1.1038  0.9574  0.7616  0.7616  0.3199  0.3199
  0.3257  0.3257  0.4933  0.4933  0.4100  0.4100  0.3558  0.3558  0.4490  0.4490
  0.4194  0.3258  0.3258  0.3163  0.1505  0.2763  0.1589  0.1589  0.0929  0.0929
  0.1629  0.1629  0.1639  0.1224  0.0754  0.0754  0.0458  0.0118  0.0040  0.0002
  0.0058

 Free energy of the ion-electron system (eV)
  ---------------------------------------------------
  alpha Z        PSCENC =      5895.67271254
  Ewald energy   TEWEN  =    -92387.43697201
  -Hartree energ DENC   =    -55823.52720249
  -exchange      EXHF   =         0.00000000
  -V(xc)+E(xc)   XCENC  =      4477.93296538
  PAW double counting   =    156768.64399496  -162680.92999530
  entropy T*S    EENTRO =        -0.58762357
  eigenvalues    EBANDS =    -10552.62188237
  atomic energy  EATOM  =    154746.85511825
  Solvation  Ediel_sol  =         0.00000000
  ---------------------------------------------------
  free energy    TOTEN  =       444.00111538 eV

  energy without entropy =      444.58873895  energy(sigma->0) =      444.29492717


--------------------------------------------------------------------------------------------------------




--------------------------------------- Iteration      2(  68)  ---------------------------------------


    POTLOK:  cpu time      0.0171: real time      0.0179
    SETDIJ:  cpu time      0.0849: real time      0.0850
     EDDAV:  cpu time      9.0623: real time      9.0686
       DOS:  cpu time      0.0015: real time      0.0015
    CHARGE:  cpu time      0.2394: real time      0.2395
    MIXING:  cpu time      0.0282: real time      0.0282
    --------------------------------------------
      LOOP:  cpu time      9.4333: real time      9.4407

 eigenvalue-minimisations  : 18080
 total energy-change (2. order) :-0.2654474E+03  (-0.3138574E+01)
 number of electron     827.9999756 magnetization      15.1834375
 augmentation part      365.0103164 magnetization       4.7088322

 Broyden mixing:
  rms(total) = 0.13130E+02    rms(broyden)= 0.13130E+02
  rms(prec ) = 0.13572E+02
  weight for this iteration     100.00

 eigenvalues of (default mixing * dielectric matrix)
  average eigenvalue GAMMA=   0.4190
  2.3212  1.3242  1.1354  1.1354  0.9923  0.9550  0.6971  0.6971  0.6238  0.6238
  0.3142  0.3142  0.5235  0.4280  0.4280  0.4375  0.4375  0.4364  0.4364  0.2144
  0.2144  0.3249  0.3249  0.3071  0.1321  0.1759  0.1759  0.2423  0.2051  0.2051
  0.0939  0.0939  0.1631  0.1631  0.1072  0.0537  0.0537  0.0697  0.0059  0.0059
  0.0002  0.0058

 Free energy of the ion-electron system (eV)
  ---------------------------------------------------
  alpha Z        PSCENC =      5895.67271254
  Ewald energy   TEWEN  =    -92387.43697201
  -Hartree energ DENC   =    -55722.84402535
  -exchange      EXHF   =         0.00000000
  -V(xc)+E(xc)   XCENC  =      4292.71415140
  PAW double counting   =    156652.48171643  -162631.01587621
  entropy T*S    EENTRO =        -0.64649746
  eigenvalues    EBANDS =    -10667.22665597
  atomic energy  EATOM  =    154746.85511825
  Solvation  Ediel_sol  =         0.00000000
  ---------------------------------------------------
  free energy    TOTEN  =       178.55367161 eV

  energy without entropy =      179.20016908  energy(sigma->0) =      178.87692035


--------------------------------------------------------------------------------------------------------




--------------------------------------- Iteration      2(  69)  ---------------------------------------


    POTLOK:  cpu time      0.0172: real time      0.0218
    SETDIJ:  cpu time      0.0840: real time      0.0841
     EDDAV:  cpu time      8.0254: real time      8.0321
       DOS:  cpu time      0.0017: real time      0.0017
    CHARGE:  cpu time      0.2430: real time      0.2436
    MIXING:  cpu time      0.0292: real time      0.0292
    --------------------------------------------
      LOOP:  cpu time      8.4005: real time      8.4125

 eigenvalue-minimisations  : 15696
 total energy-change (2. order) : 0.7990712E+01  (-0.2022131E+01)
 number of electron     827.9999759 magnetization      15.8170266
 augmentation part      372.7299835 magnetization      13.8991198

 Broyden mixing:
  rms(total) = 0.12203E+02    rms(broyden)= 0.12203E+02
  rms(prec ) = 0.12565E+02
  weight for this iteration     100.00

 eigenvalues of (default mixing * dielectric matrix)
  average eigenvalue GAMMA=   0.4164
  2.2880  1.3834  1.1471  1.1471  0.9964  0.9964  0.7409  0.7409  0.5708  0.5708
  0.3238  0.3238  0.4484  0.4484  0.5070  0.4636  0.4636  0.4006  0.4006  0.3525
  0.3525  0.2033  0.2033  0.1405  0.3083  0.1949  0.1949  0.0951  0.0951  0.2658
  0.1985  0.1985  0.0634  0.1132  0.1132  0.1572  0.1253  0.1092  0.0291  0.0202
  0.0058  0.0002  0.0050

 Free energy of the ion-electron system (eV)
  ---------------------------------------------------
  alpha Z        PSCENC =      5895.67271254
  Ewald energy   TEWEN  =    -92387.43697201
  -Hartree energ DENC   =    -55717.17655951
  -exchange      EXHF   =         0.00000000
  -V(xc)+E(xc)   XCENC  =      4291.11447856
  PAW double counting   =    156672.83531630  -162644.30055919
  entropy T*S    EENTRO =        -0.83643749
  eigenvalues    EBANDS =    -10670.18271357
  atomic energy  EATOM  =    154746.85511825
  Solvation  Ediel_sol  =         0.00000000
  ---------------------------------------------------
  free energy    TOTEN  =       186.54438388 eV

  energy without entropy =      187.38082138  energy(sigma->0) =      186.96260263


--------------------------------------------------------------------------------------------------------




--------------------------------------- Iteration      2(  70)  ---------------------------------------


    POTLOK:  cpu time      0.0171: real time      0.0183
    SETDIJ:  cpu time      0.0843: real time      0.0844
     EDDAV:  cpu time      7.0804: real time      7.0866
       DOS:  cpu time      0.0016: real time      0.0016
    CHARGE:  cpu time      0.2390: real time      0.2392
    MIXING:  cpu time      0.0298: real time      0.0298
    --------------------------------------------
      LOOP:  cpu time      7.4522: real time      7.4600

 eigenvalue-minimisations  : 13536
 total energy-change (2. order) : 0.5285070E+01  (-0.2834490E+00)
 number of electron     827.9999760 magnetization      17.8545346
 augmentation part      373.4428520 magnetization      15.5064920

 Broyden mixing:
  rms(total) = 0.12157E+02    rms(broyden)= 0.12157E+02
  rms(prec ) = 0.12443E+02
  weight for this iteration     100.00

 eigenvalues of (default mixing * dielectric matrix)
  average eigenvalue GAMMA=   0.4293
  2.3025  1.4191  1.4191  1.1622  1.1622  0.7622  0.7622  0.8726  0.6216  0.6216
  0.3019  0.3019  0.2927  0.2927  0.4364  0.4364  0.5163  0.4726  0.4726  0.3949
  0.3949  0.1558  0.3543  0.3543  0.2624  0.2624  0.3099  0.0802  0.0802  0.1181
  0.1181  0.2662  0.2105  0.2105  0.0595  0.0888  0.0888  0.1668  0.1106  0.1453
  0.0164  0.0040  0.0001  0.0058

 Free energy of the ion-electron system (eV)
  ---------------------------------------------------
  alpha Z        PSCENC =      5895.67271254
  Ewald energy   TEWEN  =    -92387.43697201
  -Hartree energ DENC   =    -55727.34557386
  -exchange      EXHF   =         0.00000000
  -V(xc)+E(xc)   XCENC  =      4294.21139215
  PAW double counting   =    156856.43631330  -162824.40619619
  entropy T*S    EENTRO =        -0.83407645
  eigenvalues    EBANDS =    -10661.32326380
  atomic energy  EATOM  =    154746.85511825
  Solvation  Ediel_sol  =         0.00000000
  ---------------------------------------------------
  free energy    TOTEN  =       191.82945394 eV

  energy without entropy =      192.66353039  energy(sigma->0) =      192.24649217


--------------------------------------------------------------------------------------------------------




--------------------------------------- Iteration      2(  71)  ---------------------------------------


    POTLOK:  cpu time      0.0171: real time      0.0181
    SETDIJ:  cpu time      0.0838: real time      0.0838
 -----------------------------------------------------------------------------
|                                                                             |
|     EEEEEEE  RRRRRR   RRRRRR   OOOOOOO  RRRRRR      ###     ###     ###     |
|     E        R     R  R     R  O     O  R     R     ###     ###     ###     |
|     E        R     R  R     R  O     O  R     R     ###     ###     ###     |
|     EEEEE    RRRRRR   RRRRRR   O     O  RRRRRR       #       #       #      |
|     E        R   R    R   R    O     O  R   R                               |
|     E        R    R   R    R   O     O  R    R      ###     ###     ###     |
|     EEEEEEE  R     R  R     R  OOOOOOO  R     R     ###     ###     ###     |
|                                                                             |
|     Error EDDDAV: Call to ZHEGV failed. Returncode = 100 1 8                |
|                                                                             |
|       ---->  I REFUSE TO CONTINUE WITH THIS SICK JOB ... BYE!!! <----       |
|                                                                             |
 -----------------------------------------------------------------------------

