 vasp.6.3.2 27Jun22 (build Jul  3 2023 11:46:21) complex                         
 executed on    LinuxNV_CrayMPICH date 2024.04.19  08:12:22
 running on    4 total cores
 distrk:  each k-point on    4 cores,    1 groups
 distr:  one band on NCORE=   1 cores,    4 groups


--------------------------------------------------------------------------------------------------------


 INCAR:
   ADDGRID = True
   ALGO = Normal
   EDIFF = 0.0001
   ENCUT = 520.0
   IBRION = -1
   ISIF = 3
   ISMEAR = -5
   ISPIN = 2
   LAECHG = True
   LASPH = True
   LCHARG = True
   LORBIT = 11
   LREAL = Auto
   LVHAR = True
   LWAVE = False
   MAGMOM = 1*7.0 3*0.6
   NELM = 1000
   NSW = 0
   PREC = Accurate
   SIGMA = 0.05

 POTCAR:    PAW_PBE Gd 23Dec2003                  
 POTCAR:    PAW_PBE Tm_3 20Jan2003                
 POTCAR:    PAW_PBE Rh_pv 25Jan2005               
 POTCAR:    PAW_PBE Gd 23Dec2003                  
   SHA256 =  58854b40b4643190560b0e2b62d2ab46bea96585f82c6231a0f4f44b8c3188dc Gd/POTCAR             
   COPYR  = (c) Copyright 23Dec2003 Georg Kresse                                                    
   COPYR  = This file is part of the software VASP. Any use, copying, and all other rights are regul
   COPYR  = If you do not have a valid VASP license, you may not use, copy or distribute this file. 
   VRHFIN =Gd : [core=Xe4]                                                                          
   LEXCH  = PE                                                                                      
   EATOM  =  3047.6032 eV,  223.9925 Ry                                                             
                                                                                                    
   TITEL  = PAW_PBE Gd 23Dec2003                                                                    
   LULTRA =        F    use ultrasoft PP ?                                                          
   IUNSCR =        1    unscreen: 0-lin 1-nonlin 2-no                                               
   RPACOR =    2.300    partial core radius                                                         
   POMASS =  157.250; ZVAL   =   18.000    mass and valenz                                          
   RCORE  =    2.800    outmost cutoff radius                                                       
   RWIGS  =    2.800; RWIGS  =    1.482    wigner-seitz radius (au A)                               
   ENMAX  =  256.472; ENMIN  =  192.354 eV                                                          
   RCLOC  =    2.316    cutoff for local pot                                                        
   LCOR   =        T    correct aug charges                                                         
   LPAW   =        T    paw PP                                                                      
   EAUG   =  537.243                                                                                
   DEXC   =    0.000                                                                                
   RMAX   =    2.857    core radius for proj-oper                                                   
   RAUG   =    1.300    factor for augmentation sphere                                              
   RDEP   =    2.921    radius for radial grids                                                     
   RDEPT  =    2.247    core radius for aug-charge                                                  
                                                                                                    
   Atomic configuration                                                                             
   14 entries                                                                                       
     n  l   j            E        occ.                                                              
     1  0  0.50    -50087.2354   2.0000                                                             
     2  0  0.50     -8269.2182   2.0000                                                             
     2  1  1.50     -7357.3672   6.0000                                                             
     3  0  0.50     -1833.2681   2.0000                                                             
     3  1  1.50     -1550.9376   6.0000                                                             
     3  2  2.50     -1178.7204  10.0000                                                             
     4  0  0.50      -369.2978   2.0000                                                             
     4  1  1.50      -276.2601   6.0000                                                             
     4  2  2.50      -147.6611  10.0000                                                             
     5  0  0.50       -49.7260   2.0000                                                             
     6  0  0.50        -4.1254   2.0000                                                             
     5  1  1.50       -27.2538   6.0000                                                             
     5  2  2.50        -2.5337   1.0000                                                             
     4  3  2.50        -8.7140   7.0000                                                             
   Description                                                                                      
     l       E           TYP  RCUT    TYP  RCUT                                                     
     0    -49.7259557     23  2.400                                                                 
     0     -4.1254107     23  2.400                                                                 
     1    -27.2537518     23  2.400                                                                 
     1     20.4087390     23  2.400                                                                 
     2     -2.5337329     23  2.500                                                                 
     2     13.6058260     23  2.500                                                                 
     3     -8.7140389     23  2.800                                                                 
     3     -9.5240782     23  2.800                                                                 
  local pseudopotential read in
  partial core-charges read in
  partial kinetic energy density read in
  atomic valenz-charges read in
  non local Contribution for L=            0  read in
    real space projection operators read in
  non local Contribution for L=            0  read in
    real space projection operators read in
  non local Contribution for L=            1  read in
    real space projection operators read in
  non local Contribution for L=            1  read in
    real space projection operators read in
  non local Contribution for L=            2  read in
    real space projection operators read in
  non local Contribution for L=            2  read in
    real space projection operators read in
  non local Contribution for L=            3  read in
    real space projection operators read in
  non local Contribution for L=            3  read in
    real space projection operators read in
    PAW grid and wavefunctions read in
 
   number of l-projection  operators is LMAX  =            8
   number of lm-projection operators is LMMAX =           32
 
 POTCAR:    PAW_PBE Tm_3 20Jan2003                
   SHA256 =  0c8a8bd35a525f2c5a5f5c8e20e9294154d98ebabfbaa9e661ee0d0d7e3efd67 Tm_3/POTCAR           
   COPYR  = (c) Copyright 20Jan2003 Georg Kresse                                                    
   COPYR  = This file is part of the software VASP. Any use, copying, and all other rights are regul
   COPYR  = If you do not have a valid VASP license, you may not use, copy or distribute this file. 
   VRHFIN =Tm : [core=Xe4]                                                                          
   LEXCH  = PE                                                                                      
   EATOM  =   683.2775 eV,   50.2195 Ry                                                             
                                                                                                    
   TITEL  = PAW_PBE Tm_3 20Jan2003                                                                  
   LULTRA =        F    use ultrasoft PP ?                                                          
   IUNSCR =        1    unscreen: 0-lin 1-nonlin 2-no                                               
   RPACOR =    2.300    partial core radius                                                         
   POMASS =  168.930; ZVAL   =    9.000    mass and valenz                                          
   RCORE  =    3.050    outmost cutoff radius                                                       
   RWIGS  =    3.000; RWIGS  =    1.588    wigner-seitz radius (au A)                               
   ENMAX  =  149.221; ENMIN  =  111.916 eV                                                          
   RCLOC  =    2.316    cutoff for local pot                                                        
   LCOR   =        T    correct aug charges                                                         
   LPAW   =        T    paw PP                                                                      
   EAUG   =  305.875                                                                                
   DEXC   =    0.000                                                                                
   RMAX   =    3.120    core radius for proj-oper                                                   
   RAUG   =    1.300    factor for augmentation sphere                                              
   RDEP   =    3.189    radius for radial grids                                                     
   RDEPT  =    2.465    core radius for aug-charge                                                  
                                                                                                    
   Atomic configuration                                                                             
   14 entries                                                                                       
     n  l   j            E        occ.                                                              
     1  0  0.50    -59275.1022   2.0000                                                             
     2  0  0.50    -10005.4926   2.0000                                                             
     2  1  1.50     -8833.0746   6.0000                                                             
     3  0  0.50     -2255.0704   2.0000                                                             
     3  1  1.50     -1900.2432   6.0000                                                             
     3  2  2.50     -1462.8022  10.0000                                                             
     4  0  0.50      -450.3872   2.0000                                                             
     4  1  1.50      -333.7115   6.0000                                                             
     4  2  2.50      -178.9038  10.0000                                                             
     4  3  2.50        -9.5858  12.0000                                                             
     5  0  0.50       -57.6404   2.0000                                                             
     6  0  0.50        -4.4911   2.0000                                                             
     5  1  1.50       -30.3726   6.0000                                                             
     5  2  2.50        -1.9736   1.0000                                                             
   Description                                                                                      
     l       E           TYP  RCUT    TYP  RCUT                                                     
     0     -4.4911479     23  3.050                                                                 
     0     10.8846608     23  3.050                                                                 
     1    -30.3725921     23  3.050                                                                 
     1    -31.7331747     23  3.050                                                                 
     2     -1.9736363     23  3.050                                                                 
     2      0.7262698     23  3.050                                                                 
  local pseudopotential read in
  partial core-charges read in
  partial kinetic energy density read in
  atomic valenz-charges read in
  non local Contribution for L=            0  read in
    real space projection operators read in
  non local Contribution for L=            0  read in
    real space projection operators read in
  non local Contribution for L=            1  read in
    real space projection operators read in
  non local Contribution for L=            1  read in
    real space projection operators read in
  non local Contribution for L=            2  read in
    real space projection operators read in
  non local Contribution for L=            2  read in
    real space projection operators read in
    PAW grid and wavefunctions read in
 
   number of l-projection  operators is LMAX  =            6
   number of lm-projection operators is LMMAX =           18
 
 POTCAR:    PAW_PBE Rh_pv 25Jan2005               
   SHA256 =  25b11608b0d10a93adcc8487bc062d7eb8aeda443ca523c31dcc1b5e75119ef1 Rh_pv/POTCAR          
   COPYR  = (c) Copyright 25Jan2005 Georg Kresse                                                    
   COPYR  = This file is part of the software VASP. Any use, copying, and all other rights are regul
   COPYR  = If you do not have a valid VASP license, you may not use, copy or distribute this file. 
   VRHFIN =Rh: 4p5s4d                                                                               
   LEXCH  = PE                                                                                      
   EATOM  =  2226.4782 eV,  163.6415 Ry                                                             
                                                                                                    
   TITEL  = PAW_PBE Rh_pv 25Jan2005                                                                 
   LULTRA =        F    use ultrasoft PP ?                                                          
   IUNSCR =        1    unscreen: 0-lin 1-nonlin 2-no                                               
   RPACOR =    2.000    partial core radius                                                         
   POMASS =  102.906; ZVAL   =   15.000    mass and valenz                                          
   RCORE  =    2.400    outmost cutoff radius                                                       
   RWIGS  =    2.650; RWIGS  =    1.402    wigner-seitz radius (au A)                               
   ENMAX  =  247.408; ENMIN  =  185.556 eV                                                          
   ICORE  =        3    local potential                                                             
   LCOR   =        T    correct aug charges                                                         
   LPAW   =        T    paw PP                                                                      
   EAUG   =  425.654                                                                                
   DEXC   =    0.000                                                                                
   RMAX   =    2.461    core radius for proj-oper                                                   
   RAUG   =    1.300    factor for augmentation sphere                                              
   RDEP   =    2.536    radius for radial grids                                                     
   RDEPT  =    1.975    core radius for aug-charge                                                  
                                                                                                    
   Atomic configuration                                                                             
   11 entries                                                                                       
     n  l   j            E        occ.                                                              
     1  0  0.50    -23034.1986   2.0000                                                             
     2  0  0.50     -3339.2387   2.0000                                                             
     2  1  1.50     -2992.3290   6.0000                                                             
     3  0  0.50      -596.7250   2.0000                                                             
     3  1  1.50      -482.7183   6.0000                                                             
     3  2  2.50      -300.5356  10.0000                                                             
     4  0  0.50       -82.4809   2.0000                                                             
     4  1  0.50       -50.4082   6.0000                                                             
     4  2  2.50        -5.9408   8.0000                                                             
     5  0  0.50        -4.2999   1.0000                                                             
     4  3  2.50        -1.3606   0.0000                                                             
   Description                                                                                      
     l       E           TYP  RCUT    TYP  RCUT                                                     
     1    -50.4082326     23  2.100                                                                 
     1      4.0817478     23  2.100                                                                 
     2     -5.9408148     23  2.400                                                                 
     2     -7.3013974     23  2.400                                                                 
     0     -4.2998579     23  2.400                                                                 
     0     13.6058260     23  2.400                                                                 
     3     -4.0817478     23  2.400                                                                 
  local pseudopotential read in
  partial core-charges read in
  partial kinetic energy density read in
  atomic valenz-charges read in
  non local Contribution for L=            1  read in
    real space projection operators read in
  non local Contribution for L=            1  read in
    real space projection operators read in
  non local Contribution for L=            2  read in
    real space projection operators read in
  non local Contribution for L=            2  read in
    real space projection operators read in
  non local Contribution for L=            0  read in
    real space projection operators read in
  non local Contribution for L=            0  read in
    real space projection operators read in
    PAW grid and wavefunctions read in
 
   number of l-projection  operators is LMAX  =            6
   number of lm-projection operators is LMMAX =           18
 
 -----------------------------------------------------------------------------
|                                                                             |
|               ----> ADVICE to this user running VASP <----                  |
|                                                                             |
|     You have a (more or less) 'small supercell' and for smaller cells       |
|     it is recommended to use the reciprocal-space projection scheme!        |
|     The real-space optimization is not efficient for small cells and it     |
|     is also less accurate ...                                               |
|     Therefore, set LREAL=.FALSE. in the INCAR file.                         |
|                                                                             |
 -----------------------------------------------------------------------------

 Optimization of the real space projectors (new method)

 maximal supplied QI-value         = 13.42
 optimisation between [QCUT,QGAM] = [ 11.67, 23.35] = [ 38.16,152.62] Ry 
 Optimized for a Real-space Cutoff    1.63 Angstroem

   l    n(q)    QCUT    max X(q) W(low)/X(q) W(high)/X(q)  e(spline) 
   0     11    11.673    10.501    0.14E-04    0.17E-05    0.21E-07
   0     11    11.673     9.148    0.21E-04    0.32E-05    0.45E-07
   1     11    11.673     4.035    0.33E-05    0.11E-04    0.84E-07
   1     11    11.673     4.388    0.11E-04    0.47E-04    0.34E-06
   2     10    11.673    20.656    0.12E-04    0.28E-04    0.54E-06
   2     10    11.673    12.651    0.11E-04    0.26E-04    0.51E-06
   3     10    11.673    61.921    0.19E-03    0.22E-03    0.23E-06
   3     10    11.673    48.328    0.20E-03    0.23E-03    0.23E-06
 Optimization of the real space projectors (new method)

 maximal supplied QI-value         = 12.28
 optimisation between [QCUT,QGAM] = [ 11.67, 23.34] = [ 38.13,152.52] Ry 
 Optimized for a Real-space Cutoff    1.78 Angstroem

   l    n(q)    QCUT    max X(q) W(low)/X(q) W(high)/X(q)  e(spline) 
   0     13    11.669    41.517    0.41E-04    0.49E-05    0.86E-06
   0     13    11.669    21.051    0.34E-04    0.39E-05    0.72E-06
   1     12    11.669    35.571    0.32E-04    0.40E-05    0.88E-06
   1     12    11.669    36.101    0.34E-04    0.47E-05    0.92E-06
   2     12    11.669   153.624    0.23E-03    0.16E-03    0.98E-06
   2     12    11.669   123.221    0.22E-03    0.16E-03    0.98E-06
 Optimization of the real space projectors (new method)

 maximal supplied QI-value         = 15.68
 optimisation between [QCUT,QGAM] = [ 11.61, 23.21] = [ 37.72,150.90] Ry 
 Optimized for a Real-space Cutoff    1.45 Angstroem

   l    n(q)    QCUT    max X(q) W(low)/X(q) W(high)/X(q)  e(spline) 
   1     10    11.607     3.143    0.27E-04    0.48E-04    0.10E-06
   1     10    11.607     5.034    0.71E-04    0.17E-03    0.32E-06
   2      9    11.607    64.180    0.22E-03    0.59E-04    0.28E-06
   2      9    11.607    61.342    0.22E-03    0.61E-04    0.29E-06
   0     10    11.607    55.593    0.52E-04    0.32E-04    0.17E-06
   0     10    11.607    26.178    0.47E-04    0.29E-04    0.15E-06
  PAW_PBE Gd 23Dec2003                  :
 energy of atom  1       EATOM=-3047.6032
 kinetic energy error for atom=    0.0019 (will be added to EATOM!!)
  PAW_PBE Tm_3 20Jan2003                :
 energy of atom  2       EATOM= -683.2775
 kinetic energy error for atom=    0.0001 (will be added to EATOM!!)
  PAW_PBE Rh_pv 25Jan2005               :
 energy of atom  3       EATOM=-2226.4782
 kinetic energy error for atom=    0.0084 (will be added to EATOM!!)
 
 
 POSCAR: Gd1 Tm1 Rh2
  positions in direct lattice
  No initial velocities read in
 exchange correlation table for  LEXCH =        8
   RHO(1)=    0.500       N(1)  =     2000
   RHO(2)=  100.500       N(2)  =     4000

 VTST: version 4.2, (08/11/21)

 CHAIN: initializing optimizer
 
 OPT: Using VASP Dynamics algorithm
 CHAIN: Read ICHAIN             0
 
 POSCAR: Gd1 Tm1 Rh2
  positions in direct lattice
  No initial velocities read in
 


--------------------------------------------------------------------------------------------------------


 ion  position               nearest neighbor table
   1  0.500  0.500  0.500-   3 2.97   3 2.97   3 2.97   3 2.97   4 2.97   4 2.97   4 2.97   4 2.97
                             2 3.43   2 3.43   2 3.43   2 3.43   2 3.43   2 3.43
   2  0.000  0.000  0.000-   4 2.97   4 2.97   4 2.97   3 2.97   4 2.97   3 2.97   3 2.97   3 2.97
                             1 3.43   1 3.43   1 3.43   1 3.43   1 3.43   1 3.43
   3  0.250  0.250  0.250-   2 2.97   2 2.97   2 2.97   1 2.97   2 2.97   1 2.97   1 2.97   1 2.97

   4  0.750  0.750  0.750-   1 2.97   1 2.97   1 2.97   1 2.97   2 2.97   2 2.97   2 2.97   2 2.97

 
  LATTYP: Found a face centered cubic cell.
 ALAT       =     6.8507040000
  
  Lattice vectors:
  
 A1 = (   0.0000000000,   3.4253520000,   3.4253520000)
 A2 = (   3.4253520000,   0.0000000000,   3.4253520000)
 A3 = (   3.4253520000,   3.4253520000,   0.0000000000)


Analysis of symmetry for initial positions (statically):
=====================================================================
 Subroutine PRICEL returns:
 Original cell was already a primitive cell.
 

 Routine SETGRP: Setting up the symmetry group for a 
 face centered cubic supercell.


 Subroutine GETGRP returns: Found 48 space group operations
 (whereof 48 operations were pure point group operations)
 out of a pool of 48 trial point group operations.


The static configuration has the point symmetry O_h .


Analysis of symmetry for dynamics (positions and initial velocities):
=====================================================================
 Subroutine PRICEL returns:
 Original cell was already a primitive cell.
 

 Routine SETGRP: Setting up the symmetry group for a 
 face centered cubic supercell.


 Subroutine GETGRP returns: Found 48 space group operations
 (whereof 48 operations were pure point group operations)
 out of a pool of 48 trial point group operations.


The dynamic configuration has the point symmetry O_h .


Analysis of structural, dynamic, and magnetic symmetry:
=====================================================================
 Subroutine PRICEL returns:
 Original cell was already a primitive cell.
 

 Routine SETGRP: Setting up the symmetry group for a 
 face centered cubic supercell.


 Subroutine GETGRP returns: Found 48 space group operations
 (whereof 48 operations were pure point group operations)
 out of a pool of 48 trial point group operations.


The overall configuration has the point symmetry O_h .


 Subroutine INISYM returns: Found 48 space group operations
 (whereof 48 operations are pure point group operations),
 and found     1 'primitive' translations


----------------------------------------------------------------------------------------

                                     Primitive cell                                     

  volume of cell :      80.3796

  direct lattice vectors                    reciprocal lattice vectors
     0.000000000  3.425352000  3.425352000    -0.145970400  0.145970400  0.145970400
     3.425352000  0.000000000  3.425352000     0.145970400 -0.145970400  0.145970400
     3.425352000  3.425352000  0.000000000     0.145970400  0.145970400 -0.145970400

  length of vectors
     4.844179254  4.844179254  4.844179254     0.252828148  0.252828148  0.252828148

  position of ions in fractional coordinates (direct lattice)
     0.500000000  0.500000000  0.500000000
     0.000000000  0.000000000  0.000000000
     0.250000000  0.250000000  0.250000000
     0.750000000  0.750000000  0.750000000

  ion indices of the primitive-cell ions
   primitive index   ion index
                 1           1
                 2           2
                 3           3
                 4           4

----------------------------------------------------------------------------------------

 
 
 KPOINTS: Kpoints from vasprun.xml                

Automatic generation of k-mesh.
 Grid dimensions read from file:
 generate k-points for:    6    6    6

 Generating k-lattice:

  Cartesian coordinates                     Fractional coordinates (reciprocal lattice)
    -0.024328400  0.024328400  0.024328400     0.166666667  0.000000000  0.000000000
     0.024328400 -0.024328400  0.024328400     0.000000000  0.166666667 -0.000000000
     0.024328400  0.024328400 -0.024328400    -0.000000000 -0.000000000  0.166666667

  Length of vectors
     0.042138025  0.042138025  0.042138025

  Shift w.r.t. Gamma in fractional coordinates (k-lattice)
     0.500000000  0.500000000  0.500000000

 TETIRR: Found    403 inequivalent tetrahedra from     5184
 
 Subroutine IBZKPT returns following result:
 ===========================================
 
 Found     28 irreducible k-points:
 
 Following reciprocal coordinates:
            Coordinates               Weight
  0.083333  0.083333  0.083333      8.000000
  0.250000  0.083333  0.083333     24.000000
  0.416667  0.083333  0.083333     24.000000
 -0.416667  0.083333  0.083333     24.000000
 -0.250000  0.083333  0.083333     24.000000
 -0.083333  0.083333  0.083333     24.000000
  0.250000  0.250000  0.083333     24.000000
  0.416667  0.250000  0.083333     48.000000
 -0.416667  0.250000  0.083333     48.000000
 -0.250000  0.250000  0.083333     48.000000
 -0.083333  0.250000  0.083333     48.000000
  0.416667  0.416667  0.083333     24.000000
 -0.416667  0.416667  0.083333     48.000000
 -0.250000  0.416667  0.083333     48.000000
 -0.083333  0.416667  0.083333     48.000000
 -0.416667 -0.416667  0.083333     24.000000
 -0.250000 -0.416667  0.083333     48.000000
 -0.250000 -0.250000  0.083333     24.000000
  0.250000  0.250000  0.250000      8.000000
  0.416667  0.250000  0.250000     24.000000
 -0.416667  0.250000  0.250000     24.000000
 -0.250000  0.250000  0.250000     24.000000
  0.416667  0.416667  0.250000     24.000000
 -0.416667  0.416667  0.250000     48.000000
 -0.250000  0.416667  0.250000     48.000000
 -0.416667 -0.416667  0.250000     24.000000
  0.416667  0.416667  0.416667      8.000000
 -0.416667  0.416667  0.416667     24.000000
 
 Following cartesian coordinates:
            Coordinates               Weight
  0.012164  0.012164  0.012164      8.000000
 -0.012164  0.036493  0.036493     24.000000
 -0.036493  0.060821  0.060821     24.000000
  0.085149 -0.060821 -0.060821     24.000000
  0.060821 -0.036493 -0.036493     24.000000
  0.036493 -0.012164 -0.012164     24.000000
  0.012164  0.012164  0.060821     24.000000
 -0.012164  0.036493  0.085149     48.000000
  0.109478 -0.085149 -0.036493     48.000000
  0.085149 -0.060821 -0.012164     48.000000
  0.060821 -0.036493  0.012164     48.000000
  0.012164  0.012164  0.109478     24.000000
  0.133806 -0.109478 -0.012164     48.000000
  0.109478 -0.085149  0.012164     48.000000
  0.085149 -0.060821  0.036493     48.000000
  0.012164  0.012164 -0.133806     24.000000
 -0.012164  0.036493 -0.109478     48.000000
  0.012164  0.012164 -0.085149     24.000000
  0.036493  0.036493  0.036493      8.000000
  0.012164  0.060821  0.060821     24.000000
  0.133806 -0.060821 -0.060821     24.000000
  0.109478 -0.036493 -0.036493     24.000000
  0.036493  0.036493  0.085149     24.000000
  0.158135 -0.085149 -0.036493     48.000000
  0.133806 -0.060821 -0.012164     48.000000
  0.036493  0.036493 -0.158135     24.000000
  0.060821  0.060821  0.060821      8.000000
  0.182463 -0.060821 -0.060821     24.000000
 


--------------------------------------------------------------------------------------------------------




 Dimension of arrays:
   k-points           NKPTS =     28   k-points in BZ     NKDIM =     28   number of bands    NBANDS=     40
   number of dos      NEDOS =    301   number of ions     NIONS =      4
   non local maximal  LDIM  =      8   non local SUM 2l+1 LMDIM =     32
   total plane-waves  NPLWV =  46656
   max r-space proj   IRMAX =  13718   max aug-charges    IRDMAX= 357722
   dimension x,y,z NGX =    36 NGY =   36 NGZ =   36
   dimension x,y,z NGXF=    72 NGYF=   72 NGZF=   72
   support grid    NGXF=   144 NGYF=  144 NGZF=  144
   ions per type =               1   1   2
   NGX,Y,Z   is equivalent  to a cutoff of  12.35, 12.35, 12.35 a.u.
   NGXF,Y,Z  is equivalent  to a cutoff of  24.71, 24.71, 24.71 a.u.

 SYSTEM =  unknown system                          
 POSCAR =  Gd1 Tm1 Rh2                             

 Startparameter for this run:
   NWRITE =      2    write-flag & timer
   PREC   = accura    normal or accurate (medium, high low for compatibility)
   ISTART =      0    job   : 0-new  1-cont  2-samecut
   ICHARG =      2    charge: 1-file 2-atom 10-const
   ISPIN  =      2    spin polarized calculation?
   LNONCOLLINEAR =      F non collinear calculations
   LSORBIT =      F    spin-orbit coupling
   INIWAV =      1    electr: 0-lowe 1-rand  2-diag
   LASPH  =      T    aspherical Exc in radial PAW
 Electronic Relaxation 1
   ENCUT  =  520.0 eV  38.22 Ry    6.18 a.u.   9.01  9.01  9.01*2*pi/ulx,y,z
   ENINI  =  520.0     initial cutoff
   ENAUG  =  537.2 eV  augmentation charge cutoff
   NELM   =   1000;   NELMIN=  2; NELMDL= -5     # of ELM steps 
   EDIFF  = 0.1E-03   stopping-criterion for ELM
   LREAL  =      T    real-space projection
   NLSPLINE    = F    spline interpolate recip. space projectors
   LCOMPAT=      F    compatible to vasp.4.4
   GGA_COMPAT  = T    GGA compatible to vasp.4.4-vasp.4.6
   LMAXPAW     = -100 max onsite density
   LMAXMIX     =    2 max onsite mixed and CHGCAR
   VOSKOWN=      0    Vosko Wilk Nusair interpolation
   ROPT   =   -0.00025  -0.00025  -0.00025
 Ionic relaxation
   EDIFFG = 0.1E-02   stopping-criterion for IOM
   NSW    =      0    number of steps for IOM
   NBLOCK =      1;   KBLOCK =      1    inner block; outer block 
   IBRION =     -1    ionic relax: 0-MD 1-quasi-New 2-CG
   NFREE  =      0    steps in history (QN), initial steepest desc. (CG)
   ISIF   =      3    stress and relaxation
   IWAVPR =     10    prediction:  0-non 1-charg 2-wave 3-comb
   ISYM   =      2    0-nonsym 1-usesym 2-fastsym
   LCORR  =      T    Harris-Foulkes like correction to forces

   POTIM  = 0.5000    time-step for ionic-motion
   TEIN   =    0.0    initial temperature
   TEBEG  =    0.0;   TEEND  =   0.0 temperature during run
   SMASS  =  -3.00    Nose mass-parameter (am)
   estimated Nose-frequenzy (Omega)   =  0.10E-29 period in steps = 0.13E+47 mass=  -0.536E-27a.u.
   SCALEE = 1.0000    scale energy and forces
   NPACO  =    256;   APACO  = 10.0  distance and # of slots for P.C.
   PSTRESS=    0.0 pullay stress

  Mass of Ions in am
   POMASS = 157.25168.93102.91
  Ionic Valenz
   ZVAL   =  18.00  9.00 15.00
  Atomic Wigner-Seitz radii
   RWIGS  =  -1.00 -1.00 -1.00
  virtual crystal weights 
   VCA    =   1.00  1.00  1.00
   NELECT =      57.0000    total number of electrons
   NUPDOWN=      -1.0000    fix difference up-down

 DOS related values:
   EMIN   =  10.00;   EMAX   =-10.00  energy-range for DOS
   EFERMI =   0.00
   ISMEAR =    -5;   SIGMA  =   0.05  broadening in eV -4-tet -1-fermi 0-gaus

 Electronic relaxation 2 (details)
   IALGO  =     38    algorithm
   LDIAG  =      T    sub-space diagonalisation (order eigenvalues)
   LSUBROT=      F    optimize rotation matrix (better conditioning)
   TURBO    =      0    0=normal 1=particle mesh
   IRESTART =      0    0=no restart 2=restart with 2 vectors
   NREBOOT  =      0    no. of reboots
   NMIN     =      0    reboot dimension
   EREF     =   0.00    reference energy to select bands
   IMIX   =      4    mixing-type and parameters
     AMIX     =   0.40;   BMIX     =  1.00
     AMIX_MAG =   1.60;   BMIX_MAG =  1.00
     AMIN     =   0.10
     WC   =   100.;   INIMIX=   1;  MIXPRE=   1;  MAXMIX= -45

 Intra band minimization:
   WEIMIN = 0.0000     energy-eigenvalue tresh-hold
   EBREAK =  0.63E-06  absolut break condition
   DEPER  =   0.30     relativ break condition  

   TIME   =   0.40     timestep for ELM

  volume/ion in A,a.u.               =      20.09       135.61
  Fermi-wavevector in a.u.,A,eV,Ry     =   1.459883  2.758778 28.997512  2.131257
  Thomas-Fermi vector in A             =   2.576397
 
 Write flags
   LWAVE        =      F    write WAVECAR
   LDOWNSAMPLE  =      F    k-point downsampling of WAVECAR
   LCHARG       =      T    write CHGCAR
   LVTOT        =      F    write LOCPOT, total local potential
   LVHAR        =      T    write LOCPOT, Hartree potential only
   LELF         =      F    write electronic localiz. function (ELF)
   LORBIT       =     11    0 simple, 1 ext, 2 COOP (PROOUT), +10 PAW based schemes


 Dipole corrections
   LMONO  =      F    monopole corrections only (constant potential shift)
   LDIPOL =      F    correct potential (dipole corrections)
   IDIPOL =      0    1-x, 2-y, 3-z, 4-all directions 
   EPSILON=  1.0000000 bulk dielectric constant

 Exchange correlation treatment:
   GGA     =    --    GGA type
   LEXCH   =     8    internal setting for exchange type
   LIBXC   =     F    Libxc                    
   VOSKOWN =     0    Vosko Wilk Nusair interpolation
   LHFCALC =     F    Hartree Fock is set to
   LHFONE  =     F    Hartree Fock one center treatment
   AEXX    =    0.0000 exact exchange contribution

 Linear response parameters
   LEPSILON=     F    determine dielectric tensor
   LRPA    =     F    only Hartree local field effects (RPA)
   LNABLA  =     F    use nabla operator in PAW spheres
   LVEL    =     F    velocity operator in full k-point grid
   CSHIFT  =0.1000    complex shift for real part using Kramers Kronig
   OMEGAMAX=  -1.0    maximum frequency
   DEG_THRESHOLD= 0.2000000E-02 threshold for treating states as degnerate
   RTIME   =   -0.100 relaxation time in fs
  (WPLASMAI=    0.000 imaginary part of plasma frequency in eV, 0.658/RTIME)
   DFIELD  = 0.0000000 0.0000000 0.0000000 field for delta impulse in time
 
  Optional k-point grid parameters
   LKPOINTS_OPT  =     F    use optional k-point grid
   KPOINTS_OPT_MODE=     1    mode for optional k-point grid
 
 Orbital magnetization related:
   ORBITALMAG=     F  switch on orbital magnetization
   LCHIMAG   =     F  perturbation theory with respect to B field
   DQ        =  0.001000  dq finite difference perturbation B field
   LLRAUG    =     F  two centre corrections for induced B field



--------------------------------------------------------------------------------------------------------


 Static calculation
 charge density and potential will be updated during run
 spin polarized calculation
 Variant of blocked Davidson
 Davidson routine will perform the subspace rotation
 perform sub-space diagonalisation
    after iterative eigenvector-optimisation
 modified Broyden-mixing scheme, WC =      100.0
 initial mixing is a Kerker type mixing with AMIX =  0.4000 and BMIX =      1.0000
 Hartree-type preconditioning will be used
 using additional bands            11
 real space projection scheme for non local part
 use partial core corrections
 calculate Harris-corrections to forces 
   (improved forces if not selfconsistent)
 use gradient corrections 
 use of overlap-Matrix (Vanderbilt PP)
 Fermi weights with tetrahedron method with Bloechl corrections


--------------------------------------------------------------------------------------------------------


  energy-cutoff  :      520.00
  volume of cell :       80.38
      direct lattice vectors                 reciprocal lattice vectors
     0.000000000  3.425352000  3.425352000    -0.145970400  0.145970400  0.145970400
     3.425352000  0.000000000  3.425352000     0.145970400 -0.145970400  0.145970400
     3.425352000  3.425352000  0.000000000     0.145970400  0.145970400 -0.145970400

  length of vectors
     4.844179254  4.844179254  4.844179254     0.252828148  0.252828148  0.252828148


 
 k-points in units of 2pi/SCALE and weight: Kpoints from vasprun.xml                
   0.01216420  0.01216420  0.01216420       0.009
  -0.01216420  0.03649260  0.03649260       0.028
  -0.03649260  0.06082100  0.06082100       0.028
   0.08514940 -0.06082100 -0.06082100       0.028
   0.06082100 -0.03649260 -0.03649260       0.028
   0.03649260 -0.01216420 -0.01216420       0.028
   0.01216420  0.01216420  0.06082100       0.028
  -0.01216420  0.03649260  0.08514940       0.056
   0.10947780 -0.08514940 -0.03649260       0.056
   0.08514940 -0.06082100 -0.01216420       0.056
   0.06082100 -0.03649260  0.01216420       0.056
   0.01216420  0.01216420  0.10947780       0.028
   0.13380620 -0.10947780 -0.01216420       0.056
   0.10947780 -0.08514940  0.01216420       0.056
   0.08514940 -0.06082100  0.03649260       0.056
   0.01216420  0.01216420 -0.13380620       0.028
  -0.01216420  0.03649260 -0.10947780       0.056
   0.01216420  0.01216420 -0.08514940       0.028
   0.03649260  0.03649260  0.03649260       0.009
   0.01216420  0.06082100  0.06082100       0.028
   0.13380620 -0.06082100 -0.06082100       0.028
   0.10947780 -0.03649260 -0.03649260       0.028
   0.03649260  0.03649260  0.08514940       0.028
   0.15813460 -0.08514940 -0.03649260       0.056
   0.13380620 -0.06082100 -0.01216420       0.056
   0.03649260  0.03649260 -0.15813460       0.028
   0.06082100  0.06082100  0.06082100       0.009
   0.18246300 -0.06082100 -0.06082100       0.028
 
 k-points in reciprocal lattice and weights: Kpoints from vasprun.xml                
   0.08333333  0.08333333  0.08333333       0.009
   0.25000000  0.08333333  0.08333333       0.028
   0.41666667  0.08333333  0.08333333       0.028
  -0.41666667  0.08333333  0.08333333       0.028
  -0.25000000  0.08333333  0.08333333       0.028
  -0.08333333  0.08333333  0.08333333       0.028
   0.25000000  0.25000000  0.08333333       0.028
   0.41666667  0.25000000  0.08333333       0.056
  -0.41666667  0.25000000  0.08333333       0.056
  -0.25000000  0.25000000  0.08333333       0.056
  -0.08333333  0.25000000  0.08333333       0.056
   0.41666667  0.41666667  0.08333333       0.028
  -0.41666667  0.41666667  0.08333333       0.056
  -0.25000000  0.41666667  0.08333333       0.056
  -0.08333333  0.41666667  0.08333333       0.056
  -0.41666667 -0.41666667  0.08333333       0.028
  -0.25000000 -0.41666667  0.08333333       0.056
  -0.25000000 -0.25000000  0.08333333       0.028
   0.25000000  0.25000000  0.25000000       0.009
   0.41666667  0.25000000  0.25000000       0.028
  -0.41666667  0.25000000  0.25000000       0.028
  -0.25000000  0.25000000  0.25000000       0.028
   0.41666667  0.41666667  0.25000000       0.028
  -0.41666667  0.41666667  0.25000000       0.056
  -0.25000000  0.41666667  0.25000000       0.056
  -0.41666667 -0.41666667  0.25000000       0.028
   0.41666667  0.41666667  0.41666667       0.009
  -0.41666667  0.41666667  0.41666667       0.028
 
 position of ions in fractional coordinates (direct lattice) 
   0.50000000  0.50000000  0.50000000
   0.00000000  0.00000000  0.00000000
   0.25000000  0.25000000  0.25000000
   0.75000000  0.75000000  0.75000000
 
 position of ions in cartesian coordinates  (Angst):
   3.42535200  3.42535200  3.42535200
   0.00000000  0.00000000  0.00000000
   1.71267600  1.71267600  1.71267600
   5.13802800  5.13802800  5.13802800
 


--------------------------------------------------------------------------------------------------------


 k-point   1 :   0.0833 0.0833 0.0833  plane waves:    2130
 k-point   2 :   0.2500 0.0833 0.0833  plane waves:    2144
 k-point   3 :   0.4167 0.0833 0.0833  plane waves:    2162
 k-point   4 :  -0.4167 0.0833 0.0833  plane waves:    2161
 k-point   5 :  -0.2500 0.0833 0.0833  plane waves:    2155
 k-point   6 :  -0.0833 0.0833 0.0833  plane waves:    2152
 k-point   7 :   0.2500 0.2500 0.0833  plane waves:    2158
 k-point   8 :   0.4167 0.2500 0.0833  plane waves:    2160
 k-point   9 :  -0.4167 0.2500 0.0833  plane waves:    2174
 k-point  10 :  -0.2500 0.2500 0.0833  plane waves:    2167
 k-point  11 :  -0.0833 0.2500 0.0833  plane waves:    2158
 k-point  12 :   0.4167 0.4167 0.0833  plane waves:    2156
 k-point  13 :  -0.4167 0.4167 0.0833  plane waves:    2173
 k-point  14 :  -0.2500 0.4167 0.0833  plane waves:    2175
 k-point  15 :  -0.0833 0.4167 0.0833  plane waves:    2160
 k-point  16 :  -0.4167-0.4167 0.0833  plane waves:    2169
 k-point  17 :  -0.2500-0.4167 0.0833  plane waves:    2166
 k-point  18 :  -0.2500-0.2500 0.0833  plane waves:    2157
 k-point  19 :   0.2500 0.2500 0.2500  plane waves:    2160
 k-point  20 :   0.4167 0.2500 0.2500  plane waves:    2157
 k-point  21 :  -0.4167 0.2500 0.2500  plane waves:    2164
 k-point  22 :  -0.2500 0.2500 0.2500  plane waves:    2166
 k-point  23 :   0.4167 0.4167 0.2500  plane waves:    2150
 k-point  24 :  -0.4167 0.4167 0.2500  plane waves:    2178
 k-point  25 :  -0.2500 0.4167 0.2500  plane waves:    2177
 k-point  26 :  -0.4167-0.4167 0.2500  plane waves:    2171
 k-point  27 :   0.4167 0.4167 0.4167  plane waves:    2156
 k-point  28 :  -0.4167 0.4167 0.4167  plane waves:    2170

 maximum and minimum number of plane-waves per node :      2178     2130

 maximum number of plane-waves:      2178
 maximum index in each direction: 
   IXMAX=    9   IYMAX=    9   IZMAX=    8
   IXMIN=   -9   IYMIN=   -9   IZMIN=   -9


 serial   3D FFT for wavefunctions
 parallel 3D FFT for charge:
    minimum data exchange during FFTs selected (reduces bandwidth)


 total amount of memory used by VASP MPI-rank0    85029. kBytes
=======================================================================

   base      :      30000. kBytes
   nonlr-proj:       8159. kBytes
   fftplans  :      13984. kBytes
   grid      :      12172. kBytes
   one-center:        393. kBytes
   wavefun   :      20321. kBytes
 
     INWAV:  cpu time      0.0001: real time      0.0003
 Broyden mixing: mesh for mixing (old mesh)
   NGX = 17   NGY = 17   NGZ = 17
  (NGX  = 72   NGY  = 72   NGZ  = 72)
  gives a total of   4913 points

 initial charge density was supplied:
 charge density of overlapping atoms calculated
 number of electron      57.0000000 magnetization       8.8000000
 keeping initial charge density in first step


--------------------------------------------------------------------------------------------------------


 Maximum index for non-local projection operator         13331
 Maximum index for augmentation-charges         86755 (set IRDMAX)


--------------------------------------------------------------------------------------------------------


 First call to EWALD:  gamma=   0.411
 Maximum number of real-space cells 3x 3x 3
 Maximum number of reciprocal cells 3x 3x 3

    FEWALD:  cpu time      0.0005: real time      0.0005


--------------------------------------- Iteration      1(   1)  ---------------------------------------


    POTLOK:  cpu time      0.1119: real time      0.1826
    SETDIJ:  cpu time      1.0095: real time      1.0099
     EDDAV:  cpu time      2.4666: real time      2.4689
 BZINTS: Fermi energy:   20.165874;   57.000000 electrons
         Band energy:-0.495489E+02;  BLOECHL correction:   -0.543310
       DOS:  cpu time      0.1751: real time      0.1751
    --------------------------------------------
      LOOP:  cpu time      3.7631: real time      3.8366

 eigenvalue-minimisations  :  6512
 total energy-change (2. order) : 0.5230202E+03  (-0.2720168E+04)
 number of electron      57.0000000 magnetization       8.8000000
 augmentation part       57.0000000 magnetization       8.8000000

 Free energy of the ion-electron system (eV)
  ---------------------------------------------------
  alpha Z        PSCENC =       537.69840298
  Ewald energy   TEWEN  =     -6371.66798590
  -Hartree energ DENC   =     -1830.09039425
  -exchange      EXHF   =         0.00000000
  -V(xc)+E(xc)   XCENC  =       212.19429094
  PAW double counting   =      6783.27711612    -6942.66061178
  entropy T*S    EENTRO =         0.00000000
  eigenvalues    EBANDS =       -49.54894948
  atomic energy  EATOM  =      8183.81830700
  Solvation  Ediel_sol  =         0.00000000
  ---------------------------------------------------
  free energy    TOTEN  =       523.02017563 eV

  energy without entropy =      523.02017563  energy(sigma->0) =      523.02017563


--------------------------------------------------------------------------------------------------------




--------------------------------------- Iteration      1(   2)  ---------------------------------------


     EDDAV:  cpu time      2.0411: real time      2.0428
 BZINTS: Fermi energy:    7.688064;   57.000000 electrons
         Band energy:-0.546908E+03;  BLOECHL correction:   -0.106292
       DOS:  cpu time      0.1428: real time      0.1429
    --------------------------------------------
      LOOP:  cpu time      2.1839: real time      2.1856

 eigenvalue-minimisations  :  5256
 total energy-change (2. order) :-0.4973592E+03  (-0.4761876E+03)
 number of electron      57.0000000 magnetization       8.8000000
 augmentation part       57.0000000 magnetization       8.8000000

 Free energy of the ion-electron system (eV)
  ---------------------------------------------------
  alpha Z        PSCENC =       537.69840298
  Ewald energy   TEWEN  =     -6371.66798590
  -Hartree energ DENC   =     -1830.09039425
  -exchange      EXHF   =         0.00000000
  -V(xc)+E(xc)   XCENC  =       212.19429094
  PAW double counting   =      6783.27711612    -6942.66061178
  entropy T*S    EENTRO =         0.00000000
  eigenvalues    EBANDS =      -546.90811655
  atomic energy  EATOM  =      8183.81830700
  Solvation  Ediel_sol  =         0.00000000
  ---------------------------------------------------
  free energy    TOTEN  =        25.66100855 eV

  energy without entropy =       25.66100855  energy(sigma->0) =       25.66100855


--------------------------------------------------------------------------------------------------------




--------------------------------------- Iteration      1(   3)  ---------------------------------------


     EDDAV:  cpu time      2.3983: real time      2.4005
 BZINTS: Fermi energy:    5.957023;   57.000000 electrons
         Band energy:-0.602814E+03;  BLOECHL correction:   -0.028620
       DOS:  cpu time      0.1279: real time      0.1280
    --------------------------------------------
      LOOP:  cpu time      2.5262: real time      2.5285

 eigenvalue-minimisations  :  6360
 total energy-change (2. order) :-0.5590587E+02  (-0.5008180E+02)
 number of electron      57.0000000 magnetization       8.8000000
 augmentation part       57.0000000 magnetization       8.8000000

 Free energy of the ion-electron system (eV)
  ---------------------------------------------------
  alpha Z        PSCENC =       537.69840298
  Ewald energy   TEWEN  =     -6371.66798590
  -Hartree energ DENC   =     -1830.09039425
  -exchange      EXHF   =         0.00000000
  -V(xc)+E(xc)   XCENC  =       212.19429094
  PAW double counting   =      6783.27711612    -6942.66061178
  entropy T*S    EENTRO =         0.00000000
  eigenvalues    EBANDS =      -602.81398348
  atomic energy  EATOM  =      8183.81830700
  Solvation  Ediel_sol  =         0.00000000
  ---------------------------------------------------
  free energy    TOTEN  =       -30.24485838 eV

  energy without entropy =      -30.24485838  energy(sigma->0) =      -30.24485838


--------------------------------------------------------------------------------------------------------




--------------------------------------- Iteration      1(   4)  ---------------------------------------


     EDDAV:  cpu time      2.6055: real time      2.6077
 BZINTS: Fermi energy:    5.901789;   57.000000 electrons
         Band energy:-0.607230E+03;  BLOECHL correction:   -0.026121
       DOS:  cpu time      0.1335: real time      0.1336
    --------------------------------------------
      LOOP:  cpu time      2.7390: real time      2.7413

 eigenvalue-minimisations  :  7024
 total energy-change (2. order) :-0.4415932E+01  (-0.4296455E+01)
 number of electron      57.0000000 magnetization       8.8000000
 augmentation part       57.0000000 magnetization       8.8000000

 Free energy of the ion-electron system (eV)
  ---------------------------------------------------
  alpha Z        PSCENC =       537.69840298
  Ewald energy   TEWEN  =     -6371.66798590
  -Hartree energ DENC   =     -1830.09039425
  -exchange      EXHF   =         0.00000000
  -V(xc)+E(xc)   XCENC  =       212.19429094
  PAW double counting   =      6783.27711612    -6942.66061178
  entropy T*S    EENTRO =         0.00000000
  eigenvalues    EBANDS =      -607.22991515
  atomic energy  EATOM  =      8183.81830700
  Solvation  Ediel_sol  =         0.00000000
  ---------------------------------------------------
  free energy    TOTEN  =       -34.66079004 eV

  energy without entropy =      -34.66079004  energy(sigma->0) =      -34.66079004


--------------------------------------------------------------------------------------------------------




--------------------------------------- Iteration      1(   5)  ---------------------------------------


     EDDAV:  cpu time      2.5883: real time      2.5914
 BZINTS: Fermi energy:    5.898366;   57.000000 electrons
         Band energy:-0.607478E+03;  BLOECHL correction:   -0.026112
       DOS:  cpu time      0.1312: real time      0.1313
    CHARGE:  cpu time      0.1399: real time      0.1400
    MIXING:  cpu time      0.0010: real time      0.0010
    --------------------------------------------
      LOOP:  cpu time      2.8604: real time      2.8636

 eigenvalue-minimisations  :  6952
 total energy-change (2. order) :-0.2480449E+00  (-0.2474533E+00)
 number of electron      57.0000002 magnetization       5.9034994
 augmentation part       23.2843361 magnetization       4.5960577

 Broyden mixing:
  rms(total) = 0.29976E+01    rms(broyden)= 0.29976E+01
  rms(prec ) = 0.54661E+01
  weight for this iteration     100.00

 Free energy of the ion-electron system (eV)
  ---------------------------------------------------
  alpha Z        PSCENC =       537.69840298
  Ewald energy   TEWEN  =     -6371.66798590
  -Hartree energ DENC   =     -1830.09039425
  -exchange      EXHF   =         0.00000000
  -V(xc)+E(xc)   XCENC  =       212.19429094
  PAW double counting   =      6783.27711612    -6942.66061178
  entropy T*S    EENTRO =         0.00000000
  eigenvalues    EBANDS =      -607.47796001
  atomic energy  EATOM  =      8183.81830700
  Solvation  Ediel_sol  =         0.00000000
  ---------------------------------------------------
  free energy    TOTEN  =       -34.90883491 eV

  energy without entropy =      -34.90883491  energy(sigma->0) =      -34.90883491


--------------------------------------------------------------------------------------------------------




--------------------------------------- Iteration      1(   6)  ---------------------------------------


    POTLOK:  cpu time      0.0064: real time      0.0073
    SETDIJ:  cpu time      1.0085: real time      1.0091
     EDDAV:  cpu time      2.7317: real time      2.7340
 BZINTS: Fermi energy:    8.687073;   57.000000 electrons
         Band energy:-0.626791E+03;  BLOECHL correction:   -0.027250
       DOS:  cpu time      0.1284: real time      0.1284
    CHARGE:  cpu time      0.1377: real time      0.1378
    MIXING:  cpu time      0.0013: real time      0.0054
    --------------------------------------------
      LOOP:  cpu time      4.0140: real time      4.0221

 eigenvalue-minimisations  :  7448
 total energy-change (2. order) :-0.7207085E+02  (-0.2750292E+02)
 number of electron      57.0000001 magnetization       4.7014088
 augmentation part       18.6729108 magnetization       4.0088997

 Broyden mixing:
  rms(total) = 0.75071E+01    rms(broyden)= 0.75071E+01
  rms(prec ) = 0.18290E+02
  weight for this iteration     100.00

 eigenvalues of (default mixing * dielectric matrix)
  average eigenvalue GAMMA=   0.1468
  0.1468

 Free energy of the ion-electron system (eV)
  ---------------------------------------------------
  alpha Z        PSCENC =       537.69840298
  Ewald energy   TEWEN  =     -6371.66798590
  -Hartree energ DENC   =     -1832.88391697
  -exchange      EXHF   =         0.00000000
  -V(xc)+E(xc)   XCENC  =       211.94444892
  PAW double counting   =      7072.38801986    -7281.48577876
  entropy T*S    EENTRO =         0.00000000
  eigenvalues    EBANDS =      -626.79118412
  atomic energy  EATOM  =      8183.81830700
  Solvation  Ediel_sol  =         0.00000000
  ---------------------------------------------------
  free energy    TOTEN  =      -106.97968699 eV

  energy without entropy =     -106.97968699  energy(sigma->0) =     -106.97968699


--------------------------------------------------------------------------------------------------------




--------------------------------------- Iteration      1(   7)  ---------------------------------------


    POTLOK:  cpu time      0.0069: real time      0.0073
    SETDIJ:  cpu time      0.9939: real time      0.9945
     EDDAV:  cpu time      2.6085: real time      2.6105
 BZINTS: Fermi energy:    5.897875;   57.000000 electrons
         Band energy:-0.637022E+03;  BLOECHL correction:   -0.005381
       DOS:  cpu time      0.1146: real time      0.1149
    CHARGE:  cpu time      0.1375: real time      0.1376
    MIXING:  cpu time      0.0010: real time      0.0010
    --------------------------------------------
      LOOP:  cpu time      3.8623: real time      3.8656

 eigenvalue-minimisations  :  7048
 total energy-change (2. order) : 0.7150338E+02  (-0.7218282E+01)
 number of electron      57.0000002 magnetization       6.1818160
 augmentation part       23.6780465 magnetization       5.4999154

 Broyden mixing:
  rms(total) = 0.24064E+01    rms(broyden)= 0.24063E+01
  rms(prec ) = 0.36116E+01
  weight for this iteration     100.00

 eigenvalues of (default mixing * dielectric matrix)
  average eigenvalue GAMMA=   0.3418
  0.5204  0.1633

 Free energy of the ion-electron system (eV)
  ---------------------------------------------------
  alpha Z        PSCENC =       537.69840298
  Ewald energy   TEWEN  =     -6371.66798590
  -Hartree energ DENC   =     -1783.34383957
  -exchange      EXHF   =         0.00000000
  -V(xc)+E(xc)   XCENC  =       208.97661309
  PAW double counting   =      7072.91705976    -7246.85312077
  entropy T*S    EENTRO =         0.00000000
  eigenvalues    EBANDS =      -637.02174701
  atomic energy  EATOM  =      8183.81830700
  Solvation  Ediel_sol  =         0.00000000
  ---------------------------------------------------
  free energy    TOTEN  =       -35.47631042 eV

  energy without entropy =      -35.47631042  energy(sigma->0) =      -35.47631042


--------------------------------------------------------------------------------------------------------




--------------------------------------- Iteration      1(   8)  ---------------------------------------


    POTLOK:  cpu time      0.0068: real time      0.0073
    SETDIJ:  cpu time      1.0015: real time      1.0022
     EDDAV:  cpu time      2.5898: real time      2.5918
 BZINTS: Fermi energy:    6.312908;   57.000000 electrons
         Band energy:-0.612133E+03;  BLOECHL correction:   -0.013883
       DOS:  cpu time      0.1170: real time      0.1171
    CHARGE:  cpu time      0.1377: real time      0.1378
    MIXING:  cpu time      0.0011: real time      0.0011
    --------------------------------------------
      LOOP:  cpu time      3.8540: real time      3.8573

 eigenvalue-minimisations  :  7008
 total energy-change (2. order) :-0.1053932E+01  (-0.1472973E+01)
 number of electron      57.0000002 magnetization       8.4019984
 augmentation part       22.8360998 magnetization       7.7759314

 Broyden mixing:
  rms(total) = 0.13020E+01    rms(broyden)= 0.13020E+01
  rms(prec ) = 0.16698E+01
  weight for this iteration     100.00

 eigenvalues of (default mixing * dielectric matrix)
  average eigenvalue GAMMA=   0.7418
  1.5048  0.2296  0.4909

 Free energy of the ion-electron system (eV)
  ---------------------------------------------------
  alpha Z        PSCENC =       537.69840298
  Ewald energy   TEWEN  =     -6371.66798590
  -Hartree energ DENC   =     -1808.48983123
  -exchange      EXHF   =         0.00000000
  -V(xc)+E(xc)   XCENC  =       212.18875133
  PAW double counting   =      7173.65438569    -7351.59888920
  entropy T*S    EENTRO =         0.00000000
  eigenvalues    EBANDS =      -612.13338295
  atomic energy  EATOM  =      8183.81830700
  Solvation  Ediel_sol  =         0.00000000
  ---------------------------------------------------
  free energy    TOTEN  =       -36.53024228 eV

  energy without entropy =      -36.53024228  energy(sigma->0) =      -36.53024228


--------------------------------------------------------------------------------------------------------




--------------------------------------- Iteration      1(   9)  ---------------------------------------


    POTLOK:  cpu time      0.0064: real time      0.0073
    SETDIJ:  cpu time      1.0025: real time      1.0033
     EDDAV:  cpu time      2.8570: real time      2.8591
 BZINTS: Fermi energy:    6.505829;   57.000000 electrons
         Band energy:-0.618764E+03;  BLOECHL correction:   -0.015461
       DOS:  cpu time      0.1151: real time      0.1152
    CHARGE:  cpu time      0.1382: real time      0.1383
    MIXING:  cpu time      0.0010: real time      0.0010
    --------------------------------------------
      LOOP:  cpu time      4.1203: real time      4.1242

 eigenvalue-minimisations  :  7792
 total energy-change (2. order) : 0.4486405E+00  (-0.2499878E+00)
 number of electron      57.0000002 magnetization       7.8806562
 augmentation part       22.5611957 magnetization       7.2577469

 Broyden mixing:
  rms(total) = 0.12511E+01    rms(broyden)= 0.12511E+01
  rms(prec ) = 0.14109E+01
  weight for this iteration     100.00

 eigenvalues of (default mixing * dielectric matrix)
  average eigenvalue GAMMA=   0.8943
  2.1788  0.2263  0.5861  0.5861

 Free energy of the ion-electron system (eV)
  ---------------------------------------------------
  alpha Z        PSCENC =       537.69840298
  Ewald energy   TEWEN  =     -6371.66798590
  -Hartree energ DENC   =     -1800.94775552
  -exchange      EXHF   =         0.00000000
  -V(xc)+E(xc)   XCENC  =       216.14090180
  PAW double counting   =      7365.53223783    -7547.89150196
  entropy T*S    EENTRO =         0.00000000
  eigenvalues    EBANDS =      -618.76420798
  atomic energy  EATOM  =      8183.81830700
  Solvation  Ediel_sol  =         0.00000000
  ---------------------------------------------------
  free energy    TOTEN  =       -36.08160175 eV

  energy without entropy =      -36.08160175  energy(sigma->0) =      -36.08160175


--------------------------------------------------------------------------------------------------------




--------------------------------------- Iteration      1(  10)  ---------------------------------------


    POTLOK:  cpu time      0.0065: real time      0.0074
    SETDIJ:  cpu time      1.0006: real time      1.0012
     EDDAV:  cpu time      2.4890: real time      2.4907
 BZINTS: Fermi energy:    6.505289;   57.000000 electrons
         Band energy:-0.619778E+03;  BLOECHL correction:   -0.015298
       DOS:  cpu time      0.1099: real time      0.1100
    CHARGE:  cpu time      0.1371: real time      0.1372
    MIXING:  cpu time      0.0011: real time      0.0011
    --------------------------------------------
      LOOP:  cpu time      3.7441: real time      3.7475

 eigenvalue-minimisations  :  6648
 total energy-change (2. order) :-0.4646582E+00  (-0.5476973E-01)
 number of electron      57.0000002 magnetization       7.4185203
 augmentation part       22.5199957 magnetization       6.7425729

 Broyden mixing:
  rms(total) = 0.79818E+00    rms(broyden)= 0.79818E+00
  rms(prec ) = 0.10068E+01
  weight for this iteration     100.00

 eigenvalues of (default mixing * dielectric matrix)
  average eigenvalue GAMMA=   0.9538
  2.5550  0.2264  0.7590  0.7590  0.4696

 Free energy of the ion-electron system (eV)
  ---------------------------------------------------
  alpha Z        PSCENC =       537.69840298
  Ewald energy   TEWEN  =     -6371.66798590
  -Hartree energ DENC   =     -1797.34367044
  -exchange      EXHF   =         0.00000000
  -V(xc)+E(xc)   XCENC  =       214.83593296
  PAW double counting   =      7425.96755424    -7610.07705448
  entropy T*S    EENTRO =         0.00000000
  eigenvalues    EBANDS =      -619.77774632
  atomic energy  EATOM  =      8183.81830700
  Solvation  Ediel_sol  =         0.00000000
  ---------------------------------------------------
  free energy    TOTEN  =       -36.54625997 eV

  energy without entropy =      -36.54625997  energy(sigma->0) =      -36.54625997


--------------------------------------------------------------------------------------------------------




--------------------------------------- Iteration      1(  11)  ---------------------------------------


    POTLOK:  cpu time      0.0064: real time      0.0074
    SETDIJ:  cpu time      1.0009: real time      1.0013
     EDDAV:  cpu time      2.9376: real time      2.9398
 BZINTS: Fermi energy:    6.402711;   57.000000 electrons
         Band energy:-0.628682E+03;  BLOECHL correction:   -0.015170
       DOS:  cpu time      0.1085: real time      0.1086
    CHARGE:  cpu time      0.1372: real time      0.1373
    MIXING:  cpu time      0.0011: real time      0.0011
    --------------------------------------------
      LOOP:  cpu time      4.1918: real time      4.1955

 eigenvalue-minimisations  :  8096
 total energy-change (2. order) : 0.3316291E-01  (-0.2419072E-01)
 number of electron      57.0000002 magnetization       7.1525161
 augmentation part       22.6388350 magnetization       6.4713969

 Broyden mixing:
  rms(total) = 0.35111E+00    rms(broyden)= 0.35111E+00
  rms(prec ) = 0.43255E+00
  weight for this iteration     100.00

 eigenvalues of (default mixing * dielectric matrix)
  average eigenvalue GAMMA=   0.9653
  2.6002  0.9390  0.9390  0.2264  0.5438  0.5438

 Free energy of the ion-electron system (eV)
  ---------------------------------------------------
  alpha Z        PSCENC =       537.69840298
  Ewald energy   TEWEN  =     -6371.66798590
  -Hartree energ DENC   =     -1788.49606566
  -exchange      EXHF   =         0.00000000
  -V(xc)+E(xc)   XCENC  =       213.65521092
  PAW double counting   =      7446.28174059    -7629.12056696
  entropy T*S    EENTRO =         0.00000000
  eigenvalues    EBANDS =      -628.68214003
  atomic energy  EATOM  =      8183.81830700
  Solvation  Ediel_sol  =         0.00000000
  ---------------------------------------------------
  free energy    TOTEN  =       -36.51309706 eV

  energy without entropy =      -36.51309706  energy(sigma->0) =      -36.51309706


--------------------------------------------------------------------------------------------------------




--------------------------------------- Iteration      1(  12)  ---------------------------------------


    POTLOK:  cpu time      0.0065: real time      0.0074
    SETDIJ:  cpu time      1.0029: real time      1.0036
     EDDAV:  cpu time      2.8184: real time      2.8208
 BZINTS: Fermi energy:    6.362380;   57.000000 electrons
         Band energy:-0.633337E+03;  BLOECHL correction:   -0.015006
       DOS:  cpu time      0.1159: real time      0.1160
    CHARGE:  cpu time      0.1373: real time      0.1374
    MIXING:  cpu time      0.0011: real time      0.0011
    --------------------------------------------
      LOOP:  cpu time      4.0820: real time      4.0864

 eigenvalue-minimisations  :  7672
 total energy-change (2. order) : 0.1417449E-01  (-0.7977398E-02)
 number of electron      57.0000002 magnetization       7.0693428
 augmentation part       22.6904448 magnetization       6.4036629

 Broyden mixing:
  rms(total) = 0.11171E+00    rms(broyden)= 0.11171E+00
  rms(prec ) = 0.15789E+00
  weight for this iteration     100.00

 eigenvalues of (default mixing * dielectric matrix)
  average eigenvalue GAMMA=   0.9892
  2.3683  1.4575  0.2264  0.5106  0.8686  0.7467  0.7467

 Free energy of the ion-electron system (eV)
  ---------------------------------------------------
  alpha Z        PSCENC =       537.69840298
  Ewald energy   TEWEN  =     -6371.66798590
  -Hartree energ DENC   =     -1785.80258601
  -exchange      EXHF   =         0.00000000
  -V(xc)+E(xc)   XCENC  =       213.00820448
  PAW double counting   =      7437.56559108    -7617.78221701
  entropy T*S    EENTRO =         0.00000000
  eigenvalues    EBANDS =      -633.33663919
  atomic energy  EATOM  =      8183.81830700
  Solvation  Ediel_sol  =         0.00000000
  ---------------------------------------------------
  free energy    TOTEN  =       -36.49892256 eV

  energy without entropy =      -36.49892256  energy(sigma->0) =      -36.49892256


--------------------------------------------------------------------------------------------------------




--------------------------------------- Iteration      1(  13)  ---------------------------------------


    POTLOK:  cpu time      0.0068: real time      0.0074
    SETDIJ:  cpu time      1.0029: real time      1.0037
     EDDAV:  cpu time      2.7531: real time      2.7558
 BZINTS: Fermi energy:    6.348486;   57.000000 electrons
         Band energy:-0.636082E+03;  BLOECHL correction:   -0.014922
       DOS:  cpu time      0.1148: real time      0.1149
    CHARGE:  cpu time      0.1374: real time      0.1375
    MIXING:  cpu time      0.0012: real time      0.0012
    --------------------------------------------
      LOOP:  cpu time      4.0163: real time      4.0204

 eigenvalue-minimisations  :  7448
 total energy-change (2. order) : 0.9063048E-02  (-0.3276731E-02)
 number of electron      57.0000002 magnetization       7.0186962
 augmentation part       22.7008845 magnetization       6.3680649

 Broyden mixing:
  rms(total) = 0.54310E-01    rms(broyden)= 0.54310E-01
  rms(prec ) = 0.72755E-01
  weight for this iteration     100.00

 eigenvalues of (default mixing * dielectric matrix)
  average eigenvalue GAMMA=   1.0569
  2.1604  2.1604  0.2264  1.1188  0.8394  0.8394  0.5158  0.5943

 Free energy of the ion-electron system (eV)
  ---------------------------------------------------
  alpha Z        PSCENC =       537.69840298
  Ewald energy   TEWEN  =     -6371.66798590
  -Hartree energ DENC   =     -1785.10746192
  -exchange      EXHF   =         0.00000000
  -V(xc)+E(xc)   XCENC  =       212.81616090
  PAW double counting   =      7428.75239487    -7606.71771958
  entropy T*S    EENTRO =         0.00000000
  eigenvalues    EBANDS =      -636.08195786
  atomic energy  EATOM  =      8183.81830700
  Solvation  Ediel_sol  =         0.00000000
  ---------------------------------------------------
  free energy    TOTEN  =       -36.48985952 eV

  energy without entropy =      -36.48985952  energy(sigma->0) =      -36.48985952


--------------------------------------------------------------------------------------------------------




--------------------------------------- Iteration      1(  14)  ---------------------------------------


    POTLOK:  cpu time      0.0068: real time      0.0073
    SETDIJ:  cpu time      1.0036: real time      1.0045
     EDDAV:  cpu time      2.5868: real time      2.5889
 BZINTS: Fermi energy:    6.324336;   57.000000 electrons
         Band energy:-0.640385E+03;  BLOECHL correction:   -0.014704
       DOS:  cpu time      0.1129: real time      0.1129
    CHARGE:  cpu time      0.1374: real time      0.1377
    MIXING:  cpu time      0.0013: real time      0.0013
    --------------------------------------------
      LOOP:  cpu time      3.8487: real time      3.8525

 eigenvalue-minimisations  :  6960
 total energy-change (2. order) :-0.1270504E-02  (-0.5054426E-02)
 number of electron      57.0000002 magnetization       6.9777010
 augmentation part       22.7290434 magnetization       6.3382530

 Broyden mixing:
  rms(total) = 0.36418E-01    rms(broyden)= 0.36418E-01
  rms(prec ) = 0.90568E-01
  weight for this iteration     100.00

 eigenvalues of (default mixing * dielectric matrix)
  average eigenvalue GAMMA=   1.1657
  2.5736  2.5736  1.3698  0.2264  0.9508  0.9508  0.5120  0.6671  0.6671

 Free energy of the ion-electron system (eV)
  ---------------------------------------------------
  alpha Z        PSCENC =       537.69840298
  Ewald energy   TEWEN  =     -6371.66798590
  -Hartree energ DENC   =     -1783.86162647
  -exchange      EXHF   =         0.00000000
  -V(xc)+E(xc)   XCENC  =       212.65446341
  PAW double counting   =      7426.01616034    -7600.76429669
  entropy T*S    EENTRO =         0.00000000
  eigenvalues    EBANDS =      -640.38455469
  atomic energy  EATOM  =      8183.81830700
  Solvation  Ediel_sol  =         0.00000000
  ---------------------------------------------------
  free energy    TOTEN  =       -36.49113002 eV

  energy without entropy =      -36.49113002  energy(sigma->0) =      -36.49113002


--------------------------------------------------------------------------------------------------------




--------------------------------------- Iteration      1(  15)  ---------------------------------------


    POTLOK:  cpu time      0.0068: real time      0.0071
    SETDIJ:  cpu time      1.0052: real time      1.0058
     EDDAV:  cpu time      2.6876: real time      2.6894
 BZINTS: Fermi energy:    6.314384;   57.000000 electrons
         Band energy:-0.640720E+03;  BLOECHL correction:   -0.014648
       DOS:  cpu time      0.1177: real time      0.1179
    CHARGE:  cpu time      0.1375: real time      0.1376
    MIXING:  cpu time      0.0013: real time      0.0013
    --------------------------------------------
      LOOP:  cpu time      3.9560: real time      3.9591

 eigenvalue-minimisations  :  7296
 total energy-change (2. order) :-0.8049476E-03  (-0.1261064E-02)
 number of electron      57.0000002 magnetization       6.9829003
 augmentation part       22.7394834 magnetization       6.3468795

 Broyden mixing:
  rms(total) = 0.54729E-01    rms(broyden)= 0.54729E-01
  rms(prec ) = 0.96837E-01
  weight for this iteration     100.00

 eigenvalues of (default mixing * dielectric matrix)
  average eigenvalue GAMMA=   1.2041
  2.8060  2.8060  1.4104  1.4104  0.2264  0.7947  0.7947  0.5122  0.6402  0.6402

 Free energy of the ion-electron system (eV)
  ---------------------------------------------------
  alpha Z        PSCENC =       537.69840298
  Ewald energy   TEWEN  =     -6371.66798590
  -Hartree energ DENC   =     -1783.94940566
  -exchange      EXHF   =         0.00000000
  -V(xc)+E(xc)   XCENC  =       212.55880222
  PAW double counting   =      7427.11699574    -7601.34716173
  entropy T*S    EENTRO =         0.00000000
  eigenvalues    EBANDS =      -640.71988961
  atomic energy  EATOM  =      8183.81830700
  Solvation  Ediel_sol  =         0.00000000
  ---------------------------------------------------
  free energy    TOTEN  =       -36.49193497 eV

  energy without entropy =      -36.49193497  energy(sigma->0) =      -36.49193497


--------------------------------------------------------------------------------------------------------




--------------------------------------- Iteration      1(  16)  ---------------------------------------


    POTLOK:  cpu time      0.0068: real time      0.0076
    SETDIJ:  cpu time      1.0039: real time      1.0043
     EDDAV:  cpu time      2.5081: real time      2.5096
 BZINTS: Fermi energy:    6.317969;   57.000000 electrons
         Band energy:-0.639880E+03;  BLOECHL correction:   -0.014723
       DOS:  cpu time      0.1140: real time      0.1141
    CHARGE:  cpu time      0.1366: real time      0.1368
    MIXING:  cpu time      0.0013: real time      0.0013
    --------------------------------------------
      LOOP:  cpu time      3.7707: real time      3.7736

 eigenvalue-minimisations  :  6712
 total energy-change (2. order) : 0.2321784E-02  (-0.2675757E-03)
 number of electron      57.0000002 magnetization       7.0018243
 augmentation part       22.7341244 magnetization       6.3673652

 Broyden mixing:
  rms(total) = 0.45906E-01    rms(broyden)= 0.45906E-01
  rms(prec ) = 0.67474E-01
  weight for this iteration     100.00

 eigenvalues of (default mixing * dielectric matrix)
  average eigenvalue GAMMA=   1.1601
  2.6399  2.6399  1.4680  1.4680  0.2264  0.9166  0.9166  0.6932  0.6932  0.5142
  0.5852

 Free energy of the ion-electron system (eV)
  ---------------------------------------------------
  alpha Z        PSCENC =       537.69840298
  Ewald energy   TEWEN  =     -6371.66798590
  -Hartree energ DENC   =     -1784.58383386
  -exchange      EXHF   =         0.00000000
  -V(xc)+E(xc)   XCENC  =       212.59059276
  PAW double counting   =      7427.63213247    -7602.09692345
  entropy T*S    EENTRO =         0.00000000
  eigenvalues    EBANDS =      -639.88030517
  atomic energy  EATOM  =      8183.81830700
  Solvation  Ediel_sol  =         0.00000000
  ---------------------------------------------------
  free energy    TOTEN  =       -36.48961318 eV

  energy without entropy =      -36.48961318  energy(sigma->0) =      -36.48961318


--------------------------------------------------------------------------------------------------------




--------------------------------------- Iteration      1(  17)  ---------------------------------------


    POTLOK:  cpu time      0.0064: real time      0.0073
    SETDIJ:  cpu time      1.0026: real time      1.0031
     EDDAV:  cpu time      2.3439: real time      2.3452
 BZINTS: Fermi energy:    6.322233;   57.000000 electrons
         Band energy:-0.639405E+03;  BLOECHL correction:   -0.014767
       DOS:  cpu time      0.1115: real time      0.1115
    CHARGE:  cpu time      0.1366: real time      0.1367
    MIXING:  cpu time      0.0013: real time      0.0013
    --------------------------------------------
      LOOP:  cpu time      3.6022: real time      3.6051

 eigenvalue-minimisations  :  6104
 total energy-change (2. order) : 0.6199319E-03  (-0.8828320E-04)
 number of electron      57.0000002 magnetization       7.0121376
 augmentation part       22.7286933 magnetization       6.3778897

 Broyden mixing:
  rms(total) = 0.26247E-01    rms(broyden)= 0.26247E-01
  rms(prec ) = 0.42686E-01
  weight for this iteration     100.00

 eigenvalues of (default mixing * dielectric matrix)
  average eigenvalue GAMMA=   1.1677
  2.5912  2.5912  1.6853  1.6853  0.2264  1.0033  1.0033  0.7515  0.7515  0.5127
  0.6051  0.6051

 Free energy of the ion-electron system (eV)
  ---------------------------------------------------
  alpha Z        PSCENC =       537.69840298
  Ewald energy   TEWEN  =     -6371.66798590
  -Hartree energ DENC   =     -1784.96035616
  -exchange      EXHF   =         0.00000000
  -V(xc)+E(xc)   XCENC  =       212.64653694
  PAW double counting   =      7428.00072308    -7602.61941777
  entropy T*S    EENTRO =         0.00000000
  eigenvalues    EBANDS =      -639.40520342
  atomic energy  EATOM  =      8183.81830700
  Solvation  Ediel_sol  =         0.00000000
  ---------------------------------------------------
  free energy    TOTEN  =       -36.48899325 eV

  energy without entropy =      -36.48899325  energy(sigma->0) =      -36.48899325


--------------------------------------------------------------------------------------------------------




--------------------------------------- Iteration      1(  18)  ---------------------------------------


    POTLOK:  cpu time      0.0068: real time      0.0074
    SETDIJ:  cpu time      1.0054: real time      1.0061
     EDDAV:  cpu time      2.4285: real time      2.4299
 BZINTS: Fermi energy:    6.325388;   57.000000 electrons
         Band energy:-0.638931E+03;  BLOECHL correction:   -0.014802
       DOS:  cpu time      0.1096: real time      0.1096
    CHARGE:  cpu time      0.1370: real time      0.1370
    MIXING:  cpu time      0.0014: real time      0.0014
    --------------------------------------------
      LOOP:  cpu time      3.6886: real time      3.6913

 eigenvalue-minimisations  :  6424
 total energy-change (2. order) : 0.4300140E-03  (-0.8394419E-04)
 number of electron      57.0000002 magnetization       7.0198560
 augmentation part       22.7246256 magnetization       6.3857184

 Broyden mixing:
  rms(total) = 0.15657E-01    rms(broyden)= 0.15657E-01
  rms(prec ) = 0.24082E-01
  weight for this iteration     100.00

[...]
  257        strkin                                0.000310                            1   3
  258          m_sumb_d                              0.000006                          1   4
  259        strelo                                0.000857                            1   3
  260          m_sumb_d                              0.000043                          2   4
  261        strnlr                                1.150733                            1   3
  262          rspher_all                            0.065980                          9   4
  263          phaser                                0.356260                        252   4
  264          rpro_isp                              0.721416                        252   4
  265            fftwav_mpi                            0.155396                     5040   5
  266              fftwav                                0.149537                   5040   6
  267                fft3d                                 0.033772                 5040   7
  268            rpromu_acc                            0.244536                     1512   5
  269          m_sumb_d                              0.000011                          1   4
  270        fft3d_mpi                             0.003121                           22   3
  271          fftbrc_mpi                            0.002430                         22   4
  272            fftbas_plan_mpi                       0.002421                       22   5
  273              map_forward                           0.000830                     20   6
  274                map_gather                            0.000198                   10   7
  275                m_alltoallv_z                         0.000117                   10   7
  276                map_scatter                           0.000375                   10   7
  277              map_backward                          0.000951                     24   6
  278                map_gather                            0.000233                   12   7
  279                m_alltoallv_z                         0.000125                   12   7
  280                map_scatter                           0.000424                   12   7
  281        m_sumb_d                              0.000029                            5   3
  282        forhar                                0.000926                            2   3
  283          m_sumb_d                              0.000017                          2   4
  284        strehar                               0.000632                            1   3
  285          m_sumb_d                              0.000003                          1   4
  286        chggra                                0.000695                            1   3
  287          fft3d_mpi                             0.000402                          3   4
  288            fftbrc_mpi                            0.000310                        3   5
  289              fftbas_plan_mpi                       0.000310                      3   6
  290                map_forward                           0.000153                    4   7
  291                  map_gather                            0.000039                  2   8
  292                  m_alltoallv_z                         0.000023                  2   8
  293                  map_scatter                           0.000065                  2   8
  294                map_backward                          0.000073                    2   7
  295                  map_gather                            0.000018                  1   8
  296                  m_alltoallv_z                         0.000009                  1   8
  297                  map_scatter                           0.000032                  1   8
  298          m_sumb_d                              0.000009                          2   4
  299          pothar                                0.000075                          1   4
  300            m_sumb_d                              0.000009                        1   5
  301        brmix                                 0.001356                            1   3
  302          m_sumb_d                              0.000021                          6   4
  303          brpre                                 0.000011                          2   4
  304          setg0                                 0.000330                          1   4
  305          broyd                                 0.000597                          1   4
  306            m_sumb_d                              0.000070                       21   5
  307            brget                                 0.000152                       79   5
  308            brsav                                 0.000039                       19   5
  309        m_bcast_d                             0.000019                            2   3
  310      potlok                                0.015364                              2   2
  311        fft3d_mpi                             0.010224                           36   3
  312          fftbrc_mpi                            0.008743                         36   4
  313            fftbas_plan_mpi                       0.008729                       36   5
  314              map_forward                           0.002454                     40   6
  315                map_gather                            0.000826                   24   7
  316                m_alltoallv_z                         0.000676                   24   7
  317                map_scatter                           0.000777                   24   7
  318              map_backward                          0.002066                     32   6
  319                map_gather                            0.000624                   16   7
  320                m_alltoallv_z                         0.000617                   16   7
  321                map_scatter                           0.000664                   16   7
  322              dfftw_execute                         0.002512                     30   6
  323        m_sumb_d                              0.000023                            5   3
  324        pothar                                0.000584                            2   3
  325          m_sumb_d                              0.000051                          2   4
  326        m_bcast_d                             0.000867                            4   3
  327      potlok_metagga                        0.000000                              1   2
  328      set_dd_magatom                        0.000005                              1   2
  329      set_dd_paw                            0.945271                              1   2
  330        m_sumb_d                              0.474824                            7   3
  331      augmentation_charge                   0.064897                              1   2
  332        fft3d_mpi                             0.014977                            2   3
  333          fftbrc_mpi                            0.012997                          2   4
  334            fftbas_plan_mpi                       0.012995                        2   5
  335              dfftw_execute                         0.008606                      6   6
  336              map_backward                          0.004159                      4   6
  337                map_gather                            0.000995                    2   7
  338                m_alltoallv_z                         0.002270                    2   7
  339                map_scatter                           0.000887                    2   7
  340      densta                                3.185126                              1   2
 
 Flat profile
 ============
 
             routine name                   CPU           calls
 ---------------------------------------------------------------
 m_sumb_d                               12.854312       67305
 lapack                                 10.325789       21527
 eddav                                   9.859447          19
 init_acc                                9.810322           1
 set_dd_paw                              8.025608          17
 raccmu_                                 6.440783       21527
 total_time                              6.268778           1
 densta                                  5.498877          20
 redis_pw                                3.743804      120762
 acc_init_cublas                         3.397486           1
 m_alltoall_d                            2.348493      314818
 setdij_                                 2.042051          43
 phaser                                  1.978282        1428
 acc_init_cusolver                       1.137037           1
 redis_proj                              1.018515      153232
 fft3d                                   0.967067      132239
 eccp                                    0.890248       10640
 fftwav                                  0.888831       89185
 augmentation_charge                     0.821594          16
 rpromu_acc                              0.798726       18391
 orth1                                   0.715697       64693
 dfftw_execute                           0.707577         780
 racc0mu_acc                             0.626014       21527
 w1_copy                                 0.625889      129162
 overl                                   0.625161       75524
 soft_charge                             0.475200          15
 m_bcast_z                               0.471435       23767
 rpro_isp                                0.447646         364
 hamiltmu                                0.441423       21527
 setup_precond                           0.379946       10640
 m_bcast_d                               0.362939       43093
 m_alltoallv_z                           0.332803         765
 overl_mu                                0.328417       21527
 ggemm                                   0.287521       26847
 acc_cufft_makeplan                      0.260743          19
 newband                                 0.201794       22591
 kinhamil                                0.195034       43054
 vhamil                                  0.193127       43054
 fftext_mpi                              0.181982       43054
 apply_precond                           0.176786       32414
 pw_charge                               0.154703        6437
 fft3d_mpi                               0.146108       43755
 depsum                                  0.137360          15
 fftwav_mpi                              0.119569       89185
 map_scatter                             0.100114         765
 rspher_all                              0.098291          14
 map_gather                              0.083894         765
 set_charge                              0.057945          15
 fftbas_plan_mpi                         0.051550         701
 potlok                                  0.048983          17
 proall                                  0.043133           1
 sphpro_fast                             0.037240           2
 elmin                                   0.035380           1
 lincom                                  0.033581        1120
 w1_projall                              0.016759       16207
 orthch                                  0.012018           1
 choleski                                0.010119          56
 force_and_stress                        0.008617           1
 strnlr                                  0.007066           1
 broyd                                   0.006870          15
 brmix                                   0.006510          15
 setg0                                   0.005117          17
 inisym                                  0.004842           1
 truncate_high_frequency_w1              0.004279       53694
 map_backward                            0.003208         726
 map_forward                             0.003189         676
 fornlr                                  0.002407           1
 pothar                                  0.001651          18
 stufak                                  0.001438           1
 brget                                   0.001262         654
 forhar                                  0.000909           2
 strelo                                  0.000814           1
 strehar                                 0.000629           1
 forloc                                  0.000507           1
 fftbrc_mpi                              0.000382         701
 brsav                                   0.000362         182
 fewald                                  0.000343           1
 strkin                                  0.000304           1
 fft_gq                                  0.000268          15
 chggra                                  0.000209           1
 brpre                                   0.000208          30
 brgrid                                  0.000089           1
 set_dd_magatom                          0.000074          17
 vectorpot                               0.000069          16
 rsp                                     0.000054           1
 fordep                                  0.000044           1
 posmap                                  0.000035           2
 crpa_reader                             0.000026           1
 rcp                                     0.000016           1
 acc_cufft_makeplans                     0.000008           3
 rotate_active_occupied_orbital          0.000001           1
 redis_pw_over_bands                     0.000000           1
 potlok_metagga                          0.000000          16
 ---------------------------------------------------------------
  summed up times     98.40173602104187     
 
 Accumulative profile
 ====================
 
             routine name                   CPU           calls
 ---------------------------------------------------------------
 total_time                             98.401736           1
 elmin                                  68.078938           1
 eddav                                  48.461242          19
 set_dd_paw                             15.921488          17
 m_sumb_d                               12.854312       67305
 lapack                                 10.325789       21527
 init_acc                                9.810322           1
 hamiltmu                                8.719310       21527
 raccmu_                                 7.395214       21527
 densta                                  5.498877          20
 redis_pw                                4.821490      120762
 force_and_stress                        4.362613           1
 acc_init_cublas                         3.397486           1
 setdij_                                 2.890064          43
 m_alltoall_d                            2.348493      314818
 redis_proj                              2.289321      153232
 newband                                 2.263701       22591
 set_charge                              2.061425          15
 phaser                                  1.978282        1428
 fft3d_mpi                               1.728734       43755
 fftwav_mpi                              1.675559       89185
 fftwav                                  1.555990       89185
 fftbrc_mpi                              1.282718         701
 fftbas_plan_mpi                         1.282336         701
 strnlr                                  1.150733           1
 acc_init_cusolver                       1.137037           1
 augmentation_charge                     1.067059          16
 rpro_isp                                0.995010         364
 fft3d                                   0.967067      132239
 eccp                                    0.890248       10640
 soft_charge                             0.853144          15
 rpromu_acc                              0.798726       18391
 orth1                                   0.715697       64693
 dfftw_execute                           0.707577         780
 kinhamil                                0.689547       43054
 racc0mu_acc                             0.626014       21527
 w1_copy                                 0.625889      129162
 overl                                   0.625161       75524
 fftext_mpi                              0.494513       43054
 w1_projall                              0.484543       16207
 m_bcast_z                               0.471435       23767
 fordep                                  0.402951           1
 fornlr                                  0.383944           1
 setup_precond                           0.379946       10640
 m_bcast_d                               0.362939       43093
 map_forward                             0.361914         676
 m_alltoallv_z                           0.332803         765
 overl_mu                                0.328417       21527
 ggemm                                   0.287521       26847
 potlok                                  0.284283          17
 orthch                                  0.261817           1
 acc_cufft_makeplans                     0.260751           3
 acc_cufft_makeplan                      0.260743          19
 vhamil                                  0.193127       43054
 apply_precond                           0.176786       32414
 map_backward                            0.161294         726
 pw_charge                               0.154703        6437
 depsum                                  0.138391          15
 proall                                  0.114888           1
 map_scatter                             0.100114         765
 rspher_all                              0.098291          14
 map_gather                              0.083894         765
 sphpro_fast                             0.038213           2
 lincom                                  0.033581        1120
 brmix                                   0.021502          15
 fft_gq                                  0.011975          15
 choleski                                0.010119          56
 broyd                                   0.009208          15
 setg0                                   0.005117          17
 inisym                                  0.004877           1
 truncate_high_frequency_w1              0.004279       53694
 pothar                                  0.001825          18
 stufak                                  0.001438           1
 brget                                   0.001262         654
 forhar                                  0.000926           2
 strelo                                  0.000857           1
 chggra                                  0.000695           1
 forloc                                  0.000679           1
 strehar                                 0.000632           1
 fewald                                  0.000515           1
 brsav                                   0.000362         182
 strkin                                  0.000310           1
 brpre                                   0.000208          30
 brgrid                                  0.000089           1
 set_dd_magatom                          0.000074          17
 vectorpot                               0.000069          16
 rsp                                     0.000054           1
 posmap                                  0.000035           2
 crpa_reader                             0.000026           1
 rcp                                     0.000016           1
 rotate_active_occupied_orbital          0.000001           1
 redis_pw_over_bands                     0.000000           1
 potlok_metagga                          0.000000          16
 ---------------------------------------------------------------
 
Profiling took   0.277642  0.139227  0.003572  0.003495 seconds
Profiling took   0.173695 seconds
