 vasp.6.3.2 27Jun22 (build Jul  3 2023 11:46:21) complex                         
 executed on    LinuxNV_CrayMPICH date 2024.04.21  03:03:11
 running on    4 total cores
 distrk:  each k-point on    4 cores,    1 groups
 distr:  one band on NCORE=   1 cores,    4 groups


--------------------------------------------------------------------------------------------------------


 INCAR:
   ADDGRID = True
   ALGO = Normal
   EDIFF = 0.0005
   ENCUT = 520.0
   IBRION = -1
   ICHARG = 0
   ISIF = 3
   ISMEAR = -5
   ISPIN = 2
   KPOINT_BSE = -1 0 0 0
   LAECHG = True
   LASPH = True
   LCHARG = True
   LELF = True
   LORBIT = 11
   LREAL = Auto
   LVHAR = True
   LWAVE = False
   MAGMOM = 2*0.6 1*7.0 7*0.6
   NELM = 1000
   NSW = 0
   PREC = accurate
   SIGMA = 0.05

 POTCAR:    PAW_PBE K_sv 06Sep2000                
 POTCAR:    PAW_PBE Eu 23Dec2003                  
 POTCAR:    PAW_PBE Au 04Oct2007                  
 POTCAR:    PAW_PBE Cl 06Sep2000                  
 POTCAR:    PAW_PBE K_sv 06Sep2000                
   SHA256 =  bf8373ef592e31d27efa2dcc68371be6d6a25ce4db6c2ffaf9e92c44050ba21a K_sv/POTCAR           
   COPYR  = (c) Copyright 06Sep2000 Georg Kresse                                                    
   COPYR  = This file is part of the software VASP. Any use, copying, and all other rights are regul
   COPYR  = If you do not have a valid VASP license, you may not use, copy or distribute this file. 
   VRHFIN =K:  3s3p4s                                                                               
   LEXCH  = PE                                                                                      
   EATOM  =   775.0067 eV,   56.9614 Ry                                                             
                                                                                                    
   TITEL  = PAW_PBE K_sv 06Sep2000                                                                  
   LULTRA =        F    use ultrasoft PP ?                                                          
   IUNSCR =        1    unscreen: 0-lin 1-nonlin 2-no                                               
   RPACOR =    2.200    partial core radius                                                         
   POMASS =   39.098; ZVAL   =    9.000    mass and valenz                                          
   RCORE  =    2.300    outmost cutoff radius                                                       
   RWIGS  =    3.000; RWIGS  =    1.588    wigner-seitz radius (au A)                               
   ENMAX  =  259.264; ENMIN  =  194.448 eV                                                          
   RCLOC  =    2.005    cutoff for local pot                                                        
   LCOR   =        T    correct aug charges                                                         
   LPAW   =        T    paw PP                                                                      
   EAUG   =  427.853                                                                                
   DEXC   =    0.000                                                                                
   RMAX   =    2.358    core radius for proj-oper                                                   
   RAUG   =    1.300    factor for augmentation sphere                                              
   RDEP   =    2.372    radius for radial grids                                                     
   RDEPT  =    2.002    core radius for aug-charge                                                  
                                                                                                    
   Atomic configuration                                                                             
    7 entries                                                                                       
     n  l   j            E        occ.                                                              
     1  0  0.50     -3522.0595   2.0000                                                             
     2  0  0.50      -353.3851   2.0000                                                             
     2  1  1.50      -280.0935   6.0000                                                             
     3  0  0.50       -35.3419   2.0000                                                             
     4  0  0.50        -2.3190   1.0000                                                             
     3  1  1.50       -18.8125   6.0000                                                             
     3  2  1.50        -1.3606   0.0000                                                             
   Description                                                                                      
     l       E           TYP  RCUT    TYP  RCUT                                                     
     0    -35.3418873     23  2.300                                                                 
     0     -2.3190215     23  2.300                                                                 
     1    -18.8124623     23  2.300                                                                 
     1    -20.4087390     23  2.300                                                                 
     2     -1.3605826     23  2.300                                                                 
  local pseudopotential read in
  partial core-charges read in
  partial kinetic energy density read in
  atomic valenz-charges read in
  non local Contribution for L=            0  read in
    real space projection operators read in
  non local Contribution for L=            0  read in
    real space projection operators read in
  non local Contribution for L=            1  read in
    real space projection operators read in
  non local Contribution for L=            1  read in
    real space projection operators read in
  non local Contribution for L=            2  read in
    real space projection operators read in
    PAW grid and wavefunctions read in
 
   number of l-projection  operators is LMAX  =            5
   number of lm-projection operators is LMMAX =           13
 
 POTCAR:    PAW_PBE Eu 23Dec2003                  
   SHA256 =  ed303d27e7c5191953f9b15539336e6f36d9037c1d2e92e80c13d733697cb93d Eu/POTCAR             
   COPYR  = (c) Copyright 23Dec2003 Georg Kresse                                                    
   COPYR  = This file is part of the software VASP. Any use, copying, and all other rights are regul
   COPYR  = If you do not have a valid VASP license, you may not use, copy or distribute this file. 
   VRHFIN =Eu : [core=Kr4d]                                                                         
   LEXCH  = PE                                                                                      
   EATOM  =  2619.8085 eV,  192.5505 Ry                                                             
                                                                                                    
   TITEL  = PAW_PBE Eu 23Dec2003                                                                    
   LULTRA =        F    use ultrasoft PP ?                                                          
   IUNSCR =        1    unscreen: 0-lin 1-nonlin 2-no                                               
   RPACOR =    2.300    partial core radius                                                         
   POMASS =  151.965; ZVAL   =   17.000    mass and valenz                                          
   RCORE  =    2.800    outmost cutoff radius                                                       
   RWIGS  =    2.800; RWIGS  =    1.482    wigner-seitz radius (au A)                               
   ENMAX  =  249.668; ENMIN  =  187.251 eV                                                          
   RCLOC  =    2.308    cutoff for local pot                                                        
   LCOR   =        T    correct aug charges                                                         
   LPAW   =        T    paw PP                                                                      
   EAUG   =  549.628                                                                                
   DEXC   =    0.000                                                                                
   RMAX   =    2.870    core radius for proj-oper                                                   
   RAUG   =    1.300    factor for augmentation sphere                                              
   RDEP   =    2.887    radius for radial grids                                                     
   RDEPT  =    2.221    core radius for aug-charge                                                  
                                                                                                    
   Atomic configuration                                                                             
   14 entries                                                                                       
     n  l   j            E        occ.                                                              
     1  0  0.50    -48354.7667   2.0000                                                             
     2  0  0.50     -7939.6472   2.0000                                                             
     2  1  1.50     -7072.6637   6.0000                                                             
     3  0  0.50     -1747.1875   2.0000                                                             
     3  1  1.50     -1477.5221   6.0000                                                             
     3  2  2.50     -1117.4686  10.0000                                                             
     4  0  0.50      -346.8682   2.0000                                                             
     4  1  1.50      -258.1962   6.0000                                                             
     4  2  2.50      -134.7724  10.0000                                                             
     5  0  0.50       -44.6510   2.0000                                                             
     6  0  0.50        -3.6227   2.0000                                                             
     5  1  1.50       -23.7639   6.0000                                                             
     5  2  2.50        -1.3130   0.0000                                                             
     4  3  2.50        -2.7310   7.0000                                                             
   Description                                                                                      
     l       E           TYP  RCUT    TYP  RCUT                                                     
     0    -44.6510453     23  2.400                                                                 
     0     -3.6226685     23  2.400                                                                 
     1    -23.7638687     23  2.400                                                                 
     1     27.2116520     23  2.400                                                                 
     2     -1.3129622     23  2.500                                                                 
     2     13.6058260     23  2.500                                                                 
     3     -2.7309948     23  2.800                                                                 
     3     -3.4014565     23  2.800                                                                 
  local pseudopotential read in
  partial core-charges read in
  partial kinetic energy density read in
  atomic valenz-charges read in
  non local Contribution for L=            0  read in
    real space projection operators read in
  non local Contribution for L=            0  read in
    real space projection operators read in
  non local Contribution for L=            1  read in
    real space projection operators read in
  non local Contribution for L=            1  read in
    real space projection operators read in
  non local Contribution for L=            2  read in
    real space projection operators read in
  non local Contribution for L=            2  read in
    real space projection operators read in
  non local Contribution for L=            3  read in
    real space projection operators read in
  non local Contribution for L=            3  read in
    real space projection operators read in
    PAW grid and wavefunctions read in
 
   number of l-projection  operators is LMAX  =            8
   number of lm-projection operators is LMMAX =           32
 
 POTCAR:    PAW_PBE Au 04Oct2007                  
   SHA256 =  d0044ae04e2bdce24051b198fc5c053d722a5bc6fe3c3b100514a13fc5d2db88 Au/POTCAR             
   COPYR  = (c) Copyright 04Oct2007 Georg Kresse                                                    
   COPYR  = This file is part of the software VASP. Any use, copying, and all other rights are regul
   COPYR  = If you do not have a valid VASP license, you may not use, copy or distribute this file. 
   VRHFIN =Au: s1d10                                                                                
   LEXCH  = PE                                                                                      
   EATOM  =   926.0867 eV,   68.0654 Ry                                                             
                                                                                                    
   TITEL  = PAW_PBE Au 04Oct2007                                                                    
   LULTRA =        F    use ultrasoft PP ?                                                          
   IUNSCR =        1    unscreen: 0-lin 1-nonlin 2-no                                               
   RPACOR =    2.330    partial core radius                                                         
   POMASS =  196.966; ZVAL   =   11.000    mass and valenz                                          
   RCORE  =    2.500    outmost cutoff radius                                                       
   RWIGS  =    2.840; RWIGS  =    1.503    wigner-seitz radius (au A)                               
   ENMAX  =  229.943; ENMIN  =  172.457 eV                                                          
   ICORE  =        3    local potential                                                             
   LCOR   =        T    correct aug charges                                                         
   LPAW   =        T    paw PP                                                                      
   EAUG   =  356.670                                                                                
   DEXC   =    0.000                                                                                
   RMAX   =    2.562    core radius for proj-oper                                                   
   RAUG   =    1.300    factor for augmentation sphere                                              
   RDEP   =    2.598    radius for radial grids                                                     
   RDEPT  =    2.193    core radius for aug-charge                                                  
                                                                                                    
   Atomic configuration                                                                             
   16 entries                                                                                       
     n  l   j            E        occ.                                                              
     1  0  0.50    -80748.5001   2.0000                                                             
     2  0  0.50    -14244.7466   2.0000                                                             
     2  1  1.50    -12310.9591   6.0000                                                             
     3  0  0.50     -3362.1768   2.0000                                                             
     3  1  1.50     -2801.5463   6.0000                                                             
     3  2  2.50     -2203.8206  10.0000                                                             
     4  0  0.50      -729.8168   2.0000                                                             
     4  1  1.50      -546.0527   6.0000                                                             
     4  2  2.50      -325.7302  10.0000                                                             
     4  3  3.50       -81.1472  14.0000                                                             
     5  0  0.50      -108.3201   2.0000                                                             
     5  1  1.50       -59.7479   6.0000                                                             
     5  2  2.50        -6.8783  10.0000                                                             
     6  0  0.50        -5.7602   1.0000                                                             
     6  1  1.50        -6.8029   0.0000                                                             
     5  3  2.50        -1.3606   0.0000                                                             
   Description                                                                                      
     l       E           TYP  RCUT    TYP  RCUT                                                     
     2     -6.8782861     23  2.500                                                                 
     2     -8.2388687     23  2.500                                                                 
     0     -5.7601759     23  2.500                                                                 
     0     -0.8493231     23  2.500                                                                 
     1     -2.7211652     23  2.500                                                                 
     1     27.2116520     23  2.500                                                                 
     3     -1.3605826     23  2.500                                                                 
  local pseudopotential read in
  partial core-charges read in
  partial kinetic energy density read in
  atomic valenz-charges read in
  non local Contribution for L=            2  read in
    real space projection operators read in
  non local Contribution for L=            2  read in
    real space projection operators read in
  non local Contribution for L=            0  read in
    real space projection operators read in
  non local Contribution for L=            0  read in
    real space projection operators read in
  non local Contribution for L=            1  read in
    real space projection operators read in
  non local Contribution for L=            1  read in
    real space projection operators read in
    PAW grid and wavefunctions read in
 
   number of l-projection  operators is LMAX  =            6
   number of lm-projection operators is LMMAX =           18
 
 POTCAR:    PAW_PBE Cl 06Sep2000                  
   SHA256 =  9f1b6e6ed4247ac726a768b330d26d7667cc3c95a39ff49c1d064c2d9dcce931 Cl/POTCAR             
   COPYR  = (c) Copyright 06Sep2000 Georg Kresse                                                    
   COPYR  = This file is part of the software VASP. Any use, copying, and all other rights are regul
   COPYR  = If you do not have a valid VASP license, you may not use, copy or distribute this file. 
   VRHFIN =Cl: s2p5                                                                                 
   LEXCH  = PE                                                                                      
   EATOM  =   409.7259 eV,   30.1140 Ry                                                             
                                                                                                    
   TITEL  = PAW_PBE Cl 06Sep2000                                                                    
   LULTRA =        F    use ultrasoft PP ?                                                          
   IUNSCR =        1    unscreen: 0-lin 1-nonlin 2-no                                               
   RPACOR =    1.500    partial core radius                                                         
   POMASS =   35.453; ZVAL   =    7.000    mass and valenz                                          
   RCORE  =    1.900    outmost cutoff radius                                                       
   RWIGS  =    2.100; RWIGS  =    1.111    wigner-seitz radius (au A)                               
   ENMAX  =  262.472; ENMIN  =  196.854 eV                                                          
   ICORE  =        2    local potential                                                             
   LCOR   =        T    correct aug charges                                                         
   LPAW   =        T    paw PP                                                                      
   EAUG   =  356.192                                                                                
   DEXC   =    0.000                                                                                
   RMAX   =    1.945    core radius for proj-oper                                                   
   RAUG   =    1.300    factor for augmentation sphere                                              
   RDEP   =    2.020    radius for radial grids                                                     
   RDEPT  =    1.678    core radius for aug-charge                                                  
                                                                                                    
   Atomic configuration                                                                             
    6 entries                                                                                       
     n  l   j            E        occ.                                                              
     1  0  0.50     -2751.1850   2.0000                                                             
     2  0  0.50      -252.6861   2.0000                                                             
     2  1  1.50      -191.6157   6.0000                                                             
     3  0  0.50       -20.6916   2.0000                                                             
     3  1  0.50        -8.5949   5.0000                                                             
     3  2  1.50        -8.1635   0.0000                                                             
   Description                                                                                      
     l       E           TYP  RCUT    TYP  RCUT                                                     
     0    -20.6915656     23  1.900                                                                 
     0    -22.0521482     23  1.900                                                                 
     1     -8.5948577     23  1.900                                                                 
     1     -5.3847331     23  1.900                                                                 
     2     -8.1634956     23  1.900                                                                 
  local pseudopotential read in
  partial core-charges read in
  partial kinetic energy density read in
  atomic valenz-charges read in
  non local Contribution for L=            0  read in
    real space projection operators read in
  non local Contribution for L=            0  read in
    real space projection operators read in
  non local Contribution for L=            1  read in
    real space projection operators read in
  non local Contribution for L=            1  read in
    real space projection operators read in
    PAW grid and wavefunctions read in
 
   number of l-projection  operators is LMAX  =            4
   number of lm-projection operators is LMMAX =            8
 
 Optimization of the real space projectors (new method)

 maximal supplied QI-value         = 16.25
 optimisation between [QCUT,QGAM] = [ 11.54, 23.24] = [ 37.28,151.24] Ry 
 Optimized for a Real-space Cutoff    1.32 Angstroem

   l    n(q)    QCUT    max X(q) W(low)/X(q) W(high)/X(q)  e(spline) 
   0      9    11.539    11.234    0.52E-04    0.40E-04    0.14E-07
   0      9    11.539    12.505    0.97E-04    0.77E-04    0.27E-07
   1      9    11.539   167.359    0.18E-03    0.11E-02    0.48E-06
   1      9    11.539   168.875    0.18E-03    0.11E-02    0.48E-06
   2      8    11.539     3.435    0.16E-03    0.11E-03    0.38E-07
 Optimization of the real space projectors (new method)

 maximal supplied QI-value         = 13.42
 optimisation between [QCUT,QGAM] = [ 11.67, 23.35] = [ 38.16,152.62] Ry 
 Optimized for a Real-space Cutoff    1.63 Angstroem

   l    n(q)    QCUT    max X(q) W(low)/X(q) W(high)/X(q)  e(spline) 
   0     11    11.673    10.400    0.14E-04    0.18E-05    0.24E-07
   0     11    11.673    10.768    0.21E-04    0.32E-05    0.49E-07
   1     11    11.673     4.094    0.40E-05    0.13E-04    0.93E-07
   1     11    11.673     4.009    0.11E-04    0.46E-04    0.33E-06
   2     10    11.673    29.030    0.79E-04    0.60E-04    0.70E-06
   2     10    11.673    19.941    0.80E-04    0.60E-04    0.71E-06
   3     10    11.673    88.889    0.23E-03    0.29E-03    0.30E-06
   3     10    11.673    76.102    0.23E-03    0.30E-03    0.30E-06
 Optimization of the real space projectors (new method)

 maximal supplied QI-value         = 15.12
 optimisation between [QCUT,QGAM] = [ 11.64, 23.28] = [ 37.95,151.78] Ry 
 Optimized for a Real-space Cutoff    1.49 Angstroem

   l    n(q)    QCUT    max X(q) W(low)/X(q) W(high)/X(q)  e(spline) 
   2      9    11.641    60.898    0.24E-03    0.10E-03    0.19E-06
   2      9    11.641    58.894    0.25E-03    0.10E-03    0.19E-06
   0     10    11.641   109.617    0.73E-04    0.33E-04    0.11E-06
   0     10    11.641    75.026    0.71E-04    0.32E-04    0.11E-06
   1     10    11.641    16.344    0.27E-04    0.97E-04    0.16E-06
   1     10    11.641    10.160    0.23E-04    0.77E-04    0.13E-06
 Optimization of the real space projectors (new method)

 maximal supplied QI-value         = 19.84
 optimisation between [QCUT,QGAM] = [ 11.51, 23.22] = [ 37.09,150.92] Ry 
 Optimized for a Real-space Cutoff    1.21 Angstroem

   l    n(q)    QCUT    max X(q) W(low)/X(q) W(high)/X(q)  e(spline) 
   0      8    11.508   168.010    0.86E-04    0.17E-03    0.49E-07
   0      8    11.508   164.674    0.84E-04    0.16E-03    0.48E-07
   1      8    11.508    69.222    0.18E-03    0.70E-04    0.97E-07
   1      8    11.508    56.786    0.18E-03    0.67E-04    0.95E-07
  PAW_PBE K_sv 06Sep2000                :
 energy of atom  1       EATOM= -775.0067
 kinetic energy error for atom=    0.0014 (will be added to EATOM!!)
  PAW_PBE Eu 23Dec2003                  :
 energy of atom  2       EATOM=-2619.8085
 kinetic energy error for atom=    0.0015 (will be added to EATOM!!)
  PAW_PBE Au 04Oct2007                  :
 energy of atom  3       EATOM= -926.0867
 kinetic energy error for atom=    0.0034 (will be added to EATOM!!)
  PAW_PBE Cl 06Sep2000                  :
 energy of atom  4       EATOM= -409.7259
 kinetic energy error for atom=    0.0023 (will be added to EATOM!!)
 
 
 POSCAR: K2 Eu1 Au1 Cl6
  positions in direct lattice
  No initial velocities read in
 exchange correlation table for  LEXCH =        8
   RHO(1)=    0.500       N(1)  =     2000
   RHO(2)=  100.500       N(2)  =     4000

 VTST: version 4.2, (08/11/21)

 CHAIN: initializing optimizer
 
 OPT: Using VASP Dynamics algorithm
 CHAIN: Read ICHAIN             0
 
 POSCAR: K2 Eu1 Au1 Cl6
  positions in direct lattice
  No initial velocities read in
 


--------------------------------------------------------------------------------------------------------


 ion  position               nearest neighbor table
   1  0.750  0.750  0.750-
   2  0.250  0.250  0.250-
   3  0.000  0.000  0.000-   5 2.73   6 2.73   7 2.73   8 2.73   9 2.73  10 2.73
   4  0.500  0.500  0.500-   5 2.66   6 2.66   7 2.66   8 2.66   9 2.66  10 2.66
   5  0.747  0.253  0.253-   4 2.66   3 2.73
   6  0.253  0.253  0.747-   4 2.66   3 2.73
   7  0.253  0.747  0.747-   4 2.66   3 2.73
   8  0.253  0.747  0.253-   4 2.66   3 2.73
   9  0.747  0.253  0.747-   4 2.66   3 2.73
  10  0.747  0.747  0.253-   4 2.66   3 2.73
 
  LATTYP: Found a face centered cubic cell.
 ALAT       =    10.7926140000
  
  Lattice vectors:
  
 A1 = (   0.0000000000,   5.3963070000,   5.3963070000)
 A2 = (   5.3963070000,   0.0000000000,   5.3963070000)
 A3 = (   5.3963070000,   5.3963070000,   0.0000000000)


Analysis of symmetry for initial positions (statically):
=====================================================================
 Subroutine PRICEL returns:
 Original cell was already a primitive cell.
 

 Routine SETGRP: Setting up the symmetry group for a 
 face centered cubic supercell.


 Subroutine GETGRP returns: Found 48 space group operations
 (whereof 48 operations were pure point group operations)
 out of a pool of 48 trial point group operations.


The static configuration has the point symmetry O_h .


Analysis of symmetry for dynamics (positions and initial velocities):
=====================================================================
 Subroutine PRICEL returns:
 Original cell was already a primitive cell.
 

 Routine SETGRP: Setting up the symmetry group for a 
 face centered cubic supercell.


 Subroutine GETGRP returns: Found 48 space group operations
 (whereof 48 operations were pure point group operations)
 out of a pool of 48 trial point group operations.


The dynamic configuration has the point symmetry O_h .


Analysis of structural, dynamic, and magnetic symmetry:
=====================================================================
 Subroutine PRICEL returns:
 Original cell was already a primitive cell.
 

 Routine SETGRP: Setting up the symmetry group for a 
 face centered cubic supercell.


 Subroutine GETGRP returns: Found 48 space group operations
 (whereof 48 operations were pure point group operations)
 out of a pool of 48 trial point group operations.


The overall configuration has the point symmetry O_h .


 Subroutine INISYM returns: Found 48 space group operations
 (whereof 48 operations are pure point group operations),
 and found     1 'primitive' translations


----------------------------------------------------------------------------------------

                                     Primitive cell                                     

  volume of cell :     314.2823

  direct lattice vectors                    reciprocal lattice vectors
     0.000000000  5.396307000  5.396307000    -0.092655959  0.092655959  0.092655959
     5.396307000  0.000000000  5.396307000     0.092655959 -0.092655959  0.092655959
     5.396307000  5.396307000  0.000000000     0.092655959  0.092655959 -0.092655959

  length of vectors
     7.631530546  7.631530546  7.631530546     0.160484829  0.160484829  0.160484829

  position of ions in fractional coordinates (direct lattice)
     0.750000000  0.750000000  0.750000000
     0.250000000  0.250000000  0.250000000
     0.000000000  0.000000000  0.000000000
     0.500000000  0.500000000  0.500000000
     0.746780000  0.253220000  0.253220000
     0.253220000  0.253220000  0.746780000
     0.253220000  0.746780000  0.746780000
     0.253220000  0.746780000  0.253220000
     0.746780000  0.253220000  0.746780000
     0.746780000  0.746780000  0.253220000

  ion indices of the primitive-cell ions
   primitive index   ion index
                 1           1
                 2           2
                 3           3
                 4           4
                 5           5
                 6           6
                 7           7
                 8           8
                 9           9
                10          10

----------------------------------------------------------------------------------------

 
 
 KPOINTS: Kpoints from vasprun.xml                

Automatic generation of k-mesh.
 Grid dimensions read from file:
 generate k-points for:    4    4    4

 Generating k-lattice:

  Cartesian coordinates                     Fractional coordinates (reciprocal lattice)
    -0.023163990  0.023163990  0.023163990     0.250000000  0.000000000  0.000000000
     0.023163990 -0.023163990  0.023163990     0.000000000  0.250000000 -0.000000000
     0.023163990  0.023163990 -0.023163990    -0.000000000 -0.000000000  0.250000000

  Length of vectors
     0.040121207  0.040121207  0.040121207

  Shift w.r.t. Gamma in fractional coordinates (k-lattice)
     0.000000000  0.000000000  0.000000000

 TETIRR: Found      9 inequivalent tetrahedra from      384
 
 Subroutine IBZKPT returns following result:
 ===========================================
 
 Found      8 irreducible k-points:
 
 Following reciprocal coordinates:
            Coordinates               Weight
  0.000000  0.000000  0.000000      1.000000
  0.250000  0.000000  0.000000      8.000000
  0.500000  0.000000  0.000000      4.000000
  0.250000  0.250000  0.000000      6.000000
  0.500000  0.250000  0.000000     24.000000
 -0.250000  0.250000  0.000000     12.000000
  0.500000  0.500000  0.000000      3.000000
 -0.250000  0.500000  0.250000      6.000000
 
 Following cartesian coordinates:
            Coordinates               Weight
  0.000000  0.000000  0.000000      1.000000
 -0.023164  0.023164  0.023164      8.000000
 -0.046328  0.046328  0.046328      4.000000
  0.000000  0.000000  0.046328      6.000000
 -0.023164  0.023164  0.069492     24.000000
  0.046328 -0.046328  0.000000     12.000000
  0.000000  0.000000  0.092656      3.000000
  0.092656 -0.046328  0.000000      6.000000
 


--------------------------------------------------------------------------------------------------------




 Dimension of arrays:
   k-points           NKPTS =      8   k-points in BZ     NKDIM =      8   number of bands    NBANDS=     60
   number of dos      NEDOS =    301   number of ions     NIONS =     10
   non local maximal  LDIM  =      8   non local SUM 2l+1 LMDIM =     32
   total plane-waves  NPLWV = 216000
   max r-space proj   IRMAX =  12454   max aug-charges    IRDMAX= 336395
   dimension x,y,z NGX =    60 NGY =   60 NGZ =   60
   dimension x,y,z NGXF=   120 NGYF=  120 NGZF=  120
   support grid    NGXF=   240 NGYF=  240 NGZF=  240
   ions per type =               2   1   1   6
   NGX,Y,Z   is equivalent  to a cutoff of  13.07, 13.07, 13.07 a.u.
   NGXF,Y,Z  is equivalent  to a cutoff of  26.14, 26.14, 26.14 a.u.

 SYSTEM =  unknown system                          
 POSCAR =  K2 Eu1 Au1 Cl6                          

 Startparameter for this run:
   NWRITE =      2    write-flag & timer
   PREC   = accura    normal or accurate (medium, high low for compatibility)
   ISTART =      0    job   : 0-new  1-cont  2-samecut
   ICHARG =      0    charge: 1-file 2-atom 10-const
   ISPIN  =      2    spin polarized calculation?
   LNONCOLLINEAR =      F non collinear calculations
   LSORBIT =      F    spin-orbit coupling
   INIWAV =      1    electr: 0-lowe 1-rand  2-diag
   LASPH  =      T    aspherical Exc in radial PAW
 Electronic Relaxation 1
   ENCUT  =  520.0 eV  38.22 Ry    6.18 a.u.  14.19 14.19 14.19*2*pi/ulx,y,z
   ENINI  =  520.0     initial cutoff
   ENAUG  =  549.6 eV  augmentation charge cutoff
   NELM   =   1000;   NELMIN=  2; NELMDL= -5     # of ELM steps 
   EDIFF  = 0.5E-03   stopping-criterion for ELM
   LREAL  =      T    real-space projection
   NLSPLINE    = F    spline interpolate recip. space projectors
   LCOMPAT=      F    compatible to vasp.4.4
   GGA_COMPAT  = T    GGA compatible to vasp.4.4-vasp.4.6
   LMAXPAW     = -100 max onsite density
   LMAXMIX     =    2 max onsite mixed and CHGCAR
   VOSKOWN=      0    Vosko Wilk Nusair interpolation
   ROPT   =   -0.00025  -0.00025  -0.00025  -0.00025
 Ionic relaxation
   EDIFFG = 0.5E-02   stopping-criterion for IOM
   NSW    =      0    number of steps for IOM
   NBLOCK =      1;   KBLOCK =      1    inner block; outer block 
   IBRION =     -1    ionic relax: 0-MD 1-quasi-New 2-CG
   NFREE  =      0    steps in history (QN), initial steepest desc. (CG)
   ISIF   =      3    stress and relaxation
   IWAVPR =     10    prediction:  0-non 1-charg 2-wave 3-comb
   ISYM   =      2    0-nonsym 1-usesym 2-fastsym
   LCORR  =      T    Harris-Foulkes like correction to forces

   POTIM  = 0.5000    time-step for ionic-motion
   TEIN   =    0.0    initial temperature
   TEBEG  =    0.0;   TEEND  =   0.0 temperature during run
   SMASS  =  -3.00    Nose mass-parameter (am)
   estimated Nose-frequenzy (Omega)   =  0.10E-29 period in steps = 0.13E+47 mass=  -0.133E-26a.u.
   SCALEE = 1.0000    scale energy and forces
   NPACO  =    256;   APACO  = 10.0  distance and # of slots for P.C.
   PSTRESS=    0.0 pullay stress

  Mass of Ions in am
   POMASS =  39.10151.97196.97 35.45
  Ionic Valenz
   ZVAL   =   9.00 17.00 11.00  7.00
  Atomic Wigner-Seitz radii
   RWIGS  =  -1.00 -1.00 -1.00 -1.00
  virtual crystal weights 
   VCA    =   1.00  1.00  1.00  1.00
   NELECT =      88.0000    total number of electrons
   NUPDOWN=      -1.0000    fix difference up-down

 DOS related values:
   EMIN   =  10.00;   EMAX   =-10.00  energy-range for DOS
   EFERMI =   0.00
   ISMEAR =    -5;   SIGMA  =   0.05  broadening in eV -4-tet -1-fermi 0-gaus

 Electronic relaxation 2 (details)
   IALGO  =     38    algorithm
   LDIAG  =      T    sub-space diagonalisation (order eigenvalues)
   LSUBROT=      F    optimize rotation matrix (better conditioning)
   TURBO    =      0    0=normal 1=particle mesh
   IRESTART =      0    0=no restart 2=restart with 2 vectors
   NREBOOT  =      0    no. of reboots
   NMIN     =      0    reboot dimension
   EREF     =   0.00    reference energy to select bands
   IMIX   =      4    mixing-type and parameters
     AMIX     =   0.40;   BMIX     =  1.00
     AMIX_MAG =   1.60;   BMIX_MAG =  1.00
     AMIN     =   0.10
     WC   =   100.;   INIMIX=   1;  MIXPRE=   1;  MAXMIX= -45

 Intra band minimization:
   WEIMIN = 0.0000     energy-eigenvalue tresh-hold
   EBREAK =  0.21E-05  absolut break condition
   DEPER  =   0.30     relativ break condition  

   TIME   =   0.40     timestep for ELM

  volume/ion in A,a.u.               =      31.43       212.09
  Fermi-wavevector in a.u.,A,eV,Ry     =   1.071015  2.023926 15.606891  1.147074
  Thomas-Fermi vector in A             =   2.206743
 
 Write flags
   LWAVE        =      F    write WAVECAR
   LDOWNSAMPLE  =      F    k-point downsampling of WAVECAR
   LCHARG       =      T    write CHGCAR
   LVTOT        =      F    write LOCPOT, total local potential
   LVHAR        =      T    write LOCPOT, Hartree potential only
   LELF         =      T    write electronic localiz. function (ELF)
   LORBIT       =     11    0 simple, 1 ext, 2 COOP (PROOUT), +10 PAW based schemes


 Dipole corrections
   LMONO  =      F    monopole corrections only (constant potential shift)
   LDIPOL =      F    correct potential (dipole corrections)
   IDIPOL =      0    1-x, 2-y, 3-z, 4-all directions 
   EPSILON=  1.0000000 bulk dielectric constant

 Exchange correlation treatment:
   GGA     =    --    GGA type
   LEXCH   =     8    internal setting for exchange type
   LIBXC   =     F    Libxc                    
   VOSKOWN =     0    Vosko Wilk Nusair interpolation
   LHFCALC =     F    Hartree Fock is set to
   LHFONE  =     F    Hartree Fock one center treatment
   AEXX    =    0.0000 exact exchange contribution

 Linear response parameters
   LEPSILON=     F    determine dielectric tensor
   LRPA    =     F    only Hartree local field effects (RPA)
   LNABLA  =     F    use nabla operator in PAW spheres
   LVEL    =     F    velocity operator in full k-point grid
   CSHIFT  =0.1000    complex shift for real part using Kramers Kronig
   OMEGAMAX=  -1.0    maximum frequency
   DEG_THRESHOLD= 0.2000000E-02 threshold for treating states as degnerate
   RTIME   =   -0.100 relaxation time in fs
  (WPLASMAI=    0.000 imaginary part of plasma frequency in eV, 0.658/RTIME)
   DFIELD  = 0.0000000 0.0000000 0.0000000 field for delta impulse in time
 
  Optional k-point grid parameters
   LKPOINTS_OPT  =     F    use optional k-point grid
   KPOINTS_OPT_MODE=     1    mode for optional k-point grid
 
 Orbital magnetization related:
   ORBITALMAG=     F  switch on orbital magnetization
   LCHIMAG   =     F  perturbation theory with respect to B field
   DQ        =  0.001000  dq finite difference perturbation B field
   LLRAUG    =     F  two centre corrections for induced B field



--------------------------------------------------------------------------------------------------------


 Static calculation
 charge density and potential will be updated during run
 spin polarized calculation
 Variant of blocked Davidson
 Davidson routine will perform the subspace rotation
 perform sub-space diagonalisation
    after iterative eigenvector-optimisation
 modified Broyden-mixing scheme, WC =      100.0
 initial mixing is a Kerker type mixing with AMIX =  0.4000 and BMIX =      1.0000
 Hartree-type preconditioning will be used
 using additional bands            16
 real space projection scheme for non local part
 use partial core corrections
 calculate Harris-corrections to forces 
   (improved forces if not selfconsistent)
 use gradient corrections 
 use of overlap-Matrix (Vanderbilt PP)
 Fermi weights with tetrahedron method with Bloechl corrections


--------------------------------------------------------------------------------------------------------


  energy-cutoff  :      520.00
  volume of cell :      314.28
      direct lattice vectors                 reciprocal lattice vectors
     0.000000000  5.396307000  5.396307000    -0.092655959  0.092655959  0.092655959
     5.396307000  0.000000000  5.396307000     0.092655959 -0.092655959  0.092655959
     5.396307000  5.396307000  0.000000000     0.092655959  0.092655959 -0.092655959

  length of vectors
     7.631530546  7.631530546  7.631530546     0.160484829  0.160484829  0.160484829


 
 k-points in units of 2pi/SCALE and weight: Kpoints from vasprun.xml                
   0.00000000  0.00000000  0.00000000       0.016
  -0.02316399  0.02316399  0.02316399       0.125
  -0.04632798  0.04632798  0.04632798       0.063
   0.00000000  0.00000000  0.04632798       0.094
  -0.02316399  0.02316399  0.06949197       0.375
   0.04632798 -0.04632798  0.00000000       0.188
   0.00000000  0.00000000  0.09265596       0.047
   0.09265596 -0.04632798  0.00000000       0.094
 
 k-points in reciprocal lattice and weights: Kpoints from vasprun.xml                
   0.00000000  0.00000000  0.00000000       0.016
   0.25000000  0.00000000  0.00000000       0.125
   0.50000000  0.00000000  0.00000000       0.063
   0.25000000  0.25000000  0.00000000       0.094
   0.50000000  0.25000000  0.00000000       0.375
  -0.25000000  0.25000000  0.00000000       0.188
   0.50000000  0.50000000  0.00000000       0.047
  -0.25000000  0.50000000  0.25000000       0.094
 
 position of ions in fractional coordinates (direct lattice) 
   0.75000000  0.75000000  0.75000000
   0.25000000  0.25000000  0.25000000
   0.00000000  0.00000000  0.00000000
   0.50000000  0.50000000  0.50000000
   0.74678000  0.25322000  0.25322000
   0.25322000  0.25322000  0.74678000
   0.25322000  0.74678000  0.74678000
   0.25322000  0.74678000  0.25322000
   0.74678000  0.25322000  0.74678000
   0.74678000  0.74678000  0.25322000
 
 position of ions in cartesian coordinates  (Angst):
   8.09446050  8.09446050  8.09446050
   2.69815350  2.69815350  2.69815350
   0.00000000  0.00000000  0.00000000
   5.39630700  5.39630700  5.39630700
   2.73290572  5.39630700  5.39630700
   5.39630700  5.39630700  2.73290572
   8.05970828  5.39630700  5.39630700
   5.39630700  2.73290572  5.39630700
   5.39630700  8.05970828  5.39630700
   5.39630700  5.39630700  8.05970828
 


--------------------------------------------------------------------------------------------------------


 k-point   1 :   0.0000 0.0000 0.0000  plane waves:    8393
 k-point   2 :   0.2500 0.0000 0.0000  plane waves:    8453
 k-point   3 :   0.5000 0.0000 0.0000  plane waves:    8424
 k-point   4 :   0.2500 0.2500 0.0000  plane waves:    8468
 k-point   5 :   0.5000 0.2500 0.0000  plane waves:    8477
 k-point   6 :  -0.2500 0.2500 0.0000  plane waves:    8484
 k-point   7 :   0.5000 0.5000 0.0000  plane waves:    8480
 k-point   8 :  -0.2500 0.5000 0.2500  plane waves:    8432

 maximum and minimum number of plane-waves per node :      8484     8393

 maximum number of plane-waves:      8484
 maximum index in each direction: 
   IXMAX=   14   IYMAX=   14   IZMAX=   14
   IXMIN=  -14   IYMIN=  -14   IZMIN=  -14


 serial   3D FFT for wavefunctions
 parallel 3D FFT for charge:
    minimum data exchange during FFTs selected (reduces bandwidth)


 total amount of memory used by VASP MPI-rank0   198373. kBytes
=======================================================================

   base      :      30000. kBytes
   nonlr-proj:      10552. kBytes
   fftplans  :      64341. kBytes
   grid      :      59443. kBytes
   one-center:        983. kBytes
   wavefun   :      33054. kBytes
 
     INWAV:  cpu time      0.0001: real time      0.0006
 Broyden mixing: mesh for mixing (old mesh)
   NGX = 29   NGY = 29   NGZ = 29
  (NGX  =120   NGY  =120   NGZ  =120)
  gives a total of  24389 points

 charge density for first step will be calculated from the start-wavefunctions


--------------------------------------------------------------------------------------------------------


 Maximum index for non-local projection operator         12017
 Maximum index for augmentation-charges         81679 (set IRDMAX)


--------------------------------------------------------------------------------------------------------


 initial charge from wavefunction
 First call to EWALD:  gamma=   0.261
 Maximum number of real-space cells 3x 3x 3
 Maximum number of reciprocal cells 3x 3x 3

    FEWALD:  cpu time      0.0017: real time      0.0017


--------------------------------------- Iteration      1(   1)  ---------------------------------------


    POTLOK:  cpu time      0.1066: real time      0.1538
    SETDIJ:  cpu time      1.3107: real time      1.3112
     EDDAV:  cpu time      1.6915: real time      1.6930
 BZINTS: Fermi energy:   -7.986437;   88.000000 electrons
         Band energy:-0.472829E+04;  BLOECHL correction:   -0.352343
       DOS:  cpu time      0.0057: real time      0.0057
    --------------------------------------------
      LOOP:  cpu time      3.1145: real time      3.1637

 eigenvalue-minimisations  :  3420
 total energy-change (2. order) :-0.1911797E+04  (-0.7437336E+04)
 number of electron      88.0000000 magnetization       0.0000000
 augmentation part        0.2547798 magnetization       0.0648227

 Free energy of the ion-electron system (eV)
  ---------------------------------------------------
  alpha Z        PSCENC =       241.49684495
  Ewald energy   TEWEN  =     -4998.10580274
  -Hartree energ DENC   =      -185.84847604
  -exchange      EXHF   =         0.00000000
  -V(xc)+E(xc)   XCENC  =       197.50133532
  PAW double counting   =     84604.38522060   -84597.17595252
  entropy T*S    EENTRO =         0.00000000
  eigenvalues    EBANDS =     -4728.29248862
  atomic energy  EATOM  =      7554.24223230
  Solvation  Ediel_sol  =         0.00000000
  ---------------------------------------------------
  free energy    TOTEN  =     -1911.79708675 eV

  energy without entropy =    -1911.79708675  energy(sigma->0) =    -1911.79708675


--------------------------------------------------------------------------------------------------------




--------------------------------------- Iteration      1(   2)  ---------------------------------------


     EDDAV:  cpu time      1.2906: real time      1.2919
 BZINTS: Fermi energy:  -28.731350;   88.000000 electrons
         Band energy:-0.607758E+04;  BLOECHL correction:   -0.319418
       DOS:  cpu time      0.0048: real time      0.0048
    --------------------------------------------
      LOOP:  cpu time      1.2954: real time      1.2967

 eigenvalue-minimisations  :  2544
 total energy-change (2. order) :-0.1349285E+04  (-0.1286226E+04)
 number of electron      88.0000000 magnetization       0.0000000
 augmentation part        0.2547798 magnetization       0.0648227

 Free energy of the ion-electron system (eV)
  ---------------------------------------------------
  alpha Z        PSCENC =       241.49684495
  Ewald energy   TEWEN  =     -4998.10580274
  -Hartree energ DENC   =      -185.84847604
  -exchange      EXHF   =         0.00000000
  -V(xc)+E(xc)   XCENC  =       197.50133532
  PAW double counting   =     84604.38522060   -84597.17595252
  entropy T*S    EENTRO =         0.00000000
  eigenvalues    EBANDS =     -6077.57775445
  atomic energy  EATOM  =      7554.24223230
  Solvation  Ediel_sol  =         0.00000000
  ---------------------------------------------------
  free energy    TOTEN  =     -3261.08235258 eV

  energy without entropy =    -3261.08235258  energy(sigma->0) =    -3261.08235258


--------------------------------------------------------------------------------------------------------




--------------------------------------- Iteration      1(   3)  ---------------------------------------


     EDDAV:  cpu time      1.5850: real time      1.5865
 BZINTS: Fermi energy:  -32.447773;   88.000000 electrons
         Band energy:-0.641684E+04;  BLOECHL correction:   -0.064051
       DOS:  cpu time      0.0041: real time      0.0041
    --------------------------------------------
      LOOP:  cpu time      1.5892: real time      1.5906

 eigenvalue-minimisations  :  3232
 total energy-change (2. order) :-0.3392623E+03  (-0.3297019E+03)
 number of electron      88.0000000 magnetization       0.0000000
 augmentation part        0.2547798 magnetization       0.0648227

 Free energy of the ion-electron system (eV)
  ---------------------------------------------------
  alpha Z        PSCENC =       241.49684495
  Ewald energy   TEWEN  =     -4998.10580274
  -Hartree energ DENC   =      -185.84847604
  -exchange      EXHF   =         0.00000000
  -V(xc)+E(xc)   XCENC  =       197.50133532
  PAW double counting   =     84604.38522060   -84597.17595252
  entropy T*S    EENTRO =         0.00000000
  eigenvalues    EBANDS =     -6416.84006089
  atomic energy  EATOM  =      7554.24223230
  Solvation  Ediel_sol  =         0.00000000
  ---------------------------------------------------
  free energy    TOTEN  =     -3600.34465903 eV

  energy without entropy =    -3600.34465903  energy(sigma->0) =    -3600.34465903


--------------------------------------------------------------------------------------------------------




--------------------------------------- Iteration      1(   4)  ---------------------------------------


     EDDAV:  cpu time      1.5036: real time      1.5052
 BZINTS: Fermi energy:  -33.083172;   88.000000 electrons
         Band energy:-0.645507E+04;  BLOECHL correction:   -0.044916
       DOS:  cpu time      0.0039: real time      0.0039
    --------------------------------------------
      LOOP:  cpu time      1.5075: real time      1.5092

 eigenvalue-minimisations  :  3044
 total energy-change (2. order) :-0.3822907E+02  (-0.3741946E+02)
 number of electron      88.0000000 magnetization       0.0000000
 augmentation part        0.2547798 magnetization       0.0648227

 Free energy of the ion-electron system (eV)
  ---------------------------------------------------
  alpha Z        PSCENC =       241.49684495
  Ewald energy   TEWEN  =     -4998.10580274
  -Hartree energ DENC   =      -185.84847604
  -exchange      EXHF   =         0.00000000
  -V(xc)+E(xc)   XCENC  =       197.50133532
  PAW double counting   =     84604.38522060   -84597.17595252
  entropy T*S    EENTRO =         0.00000000
  eigenvalues    EBANDS =     -6455.06912683
  atomic energy  EATOM  =      7554.24223230
  Solvation  Ediel_sol  =         0.00000000
  ---------------------------------------------------
  free energy    TOTEN  =     -3638.57372496 eV

  energy without entropy =    -3638.57372496  energy(sigma->0) =    -3638.57372496


--------------------------------------------------------------------------------------------------------




--------------------------------------- Iteration      1(   5)  ---------------------------------------


     EDDAV:  cpu time      1.4947: real time      1.4961
 BZINTS: Fermi energy:  -33.104147;   88.000000 electrons
         Band energy:-0.645797E+04;  BLOECHL correction:   -0.047522
       DOS:  cpu time      0.0038: real time      0.0038
    CHARGE:  cpu time      0.2119: real time      0.2121
    MIXING:  cpu time      0.0048: real time      0.0048
    --------------------------------------------
      LOOP:  cpu time      1.7152: real time      1.7168

 eigenvalue-minimisations  :  3040
 total energy-change (2. order) :-0.2900044E+01  (-0.2891185E+01)
 number of electron      88.0000000 magnetization      -0.0325108
 augmentation part        9.1397755 magnetization       0.1423988

 Broyden mixing:
  rms(total) = 0.27769E+03    rms(broyden)= 0.27769E+03
  rms(prec ) = 0.28097E+03
  weight for this iteration     100.00

 Free energy of the ion-electron system (eV)
  ---------------------------------------------------
  alpha Z        PSCENC =       241.49684495
  Ewald energy   TEWEN  =     -4998.10580274
  -Hartree energ DENC   =      -185.84847604
  -exchange      EXHF   =         0.00000000
  -V(xc)+E(xc)   XCENC  =       197.50133532
  PAW double counting   =     84604.38522060   -84597.17595252
  entropy T*S    EENTRO =         0.00000000
  eigenvalues    EBANDS =     -6457.96917082
  atomic energy  EATOM  =      7554.24223230
  Solvation  Ediel_sol  =         0.00000000
  ---------------------------------------------------
  free energy    TOTEN  =     -3641.47376895 eV

  energy without entropy =    -3641.47376895  energy(sigma->0) =    -3641.47376895


--------------------------------------------------------------------------------------------------------




--------------------------------------- Iteration      1(   6)  ---------------------------------------


    POTLOK:  cpu time      0.0112: real time      0.0117
    SETDIJ:  cpu time      1.3015: real time      1.3020
     EDDAV:  cpu time      1.2949: real time      1.2959
 BZINTS: Fermi energy:   -3.145719;   88.000000 electrons
         Band energy:-0.220248E+04;  BLOECHL correction:   -0.088278
       DOS:  cpu time      0.0044: real time      0.0044
    CHARGE:  cpu time      0.2083: real time      0.2084
    MIXING:  cpu time      0.0043: real time      0.0080
    --------------------------------------------
      LOOP:  cpu time      2.8245: real time      2.8304

 eigenvalue-minimisations  :  2560
 total energy-change (2. order) : 0.2793305E+04  (-0.8026384E+03)
 number of electron      88.0000000 magnetization      -0.0321914
 augmentation part       -4.6262783 magnetization       0.0697137

 Broyden mixing:
  rms(total) = 0.10987E+03    rms(broyden)= 0.10987E+03
  rms(prec ) = 0.11155E+03
  weight for this iteration     100.00

 eigenvalues of (default mixing * dielectric matrix)
  average eigenvalue GAMMA=   0.7186
  0.7186

 Free energy of the ion-electron system (eV)
  ---------------------------------------------------
  alpha Z        PSCENC =       241.49684495
  Ewald energy   TEWEN  =     -4998.10580274
  -Hartree energ DENC   =     -1461.20121748
  -exchange      EXHF   =         0.00000000
  -V(xc)+E(xc)   XCENC  =       241.81346711
  PAW double counting   =   3162331.90067477 -3162555.83737917
  entropy T*S    EENTRO =         0.00000000
  eigenvalues    EBANDS =     -2202.47741510
  atomic energy  EATOM  =      7554.24223230
  Solvation  Ediel_sol  =         0.00000000
  ---------------------------------------------------
  free energy    TOTEN  =      -848.16859536 eV

  energy without entropy =     -848.16859536  energy(sigma->0) =     -848.16859536


--------------------------------------------------------------------------------------------------------




--------------------------------------- Iteration      1(   7)  ---------------------------------------


    POTLOK:  cpu time      0.0113: real time      0.0118
    SETDIJ:  cpu time      1.3028: real time      1.3035
     EDDAV:  cpu time      1.5357: real time      1.5364
 BZINTS: Fermi energy:  -10.430384;   88.000000 electrons
         Band energy:-0.203878E+04;  BLOECHL correction:   -0.007428
       DOS:  cpu time      0.0047: real time      0.0047
    CHARGE:  cpu time      0.2084: real time      0.2086
    MIXING:  cpu time      0.0045: real time      0.0045
    --------------------------------------------
      LOOP:  cpu time      3.0675: real time      3.0695

 eigenvalue-minimisations  :  3132
 total energy-change (2. order) : 0.3697665E+03  (-0.1528634E+03)
 number of electron      88.0000000 magnetization       0.2627634
 augmentation part        7.7415594 magnetization      -0.9797416

 Broyden mixing:
  rms(total) = 0.92823E+02    rms(broyden)= 0.92823E+02
  rms(prec ) = 0.95112E+02
  weight for this iteration     100.00

 eigenvalues of (default mixing * dielectric matrix)
  average eigenvalue GAMMA=   0.4780
  0.5706  0.3855

 Free energy of the ion-electron system (eV)
  ---------------------------------------------------
  alpha Z        PSCENC =       241.49684495
  Ewald energy   TEWEN  =     -4998.10580274
  -Hartree energ DENC   =     -1370.41591568
  -exchange      EXHF   =         0.00000000
  -V(xc)+E(xc)   XCENC  =       241.81762575
  PAW double counting   =   1710198.45097050 -1710307.10526411
  entropy T*S    EENTRO =         0.00000000
  eigenvalues    EBANDS =     -2038.78282625
  atomic energy  EATOM  =      7554.24223230
  Solvation  Ediel_sol  =         0.00000000
  ---------------------------------------------------
  free energy    TOTEN  =      -478.40213529 eV

  energy without entropy =     -478.40213529  energy(sigma->0) =     -478.40213529


--------------------------------------------------------------------------------------------------------




--------------------------------------- Iteration      1(   8)  ---------------------------------------


    POTLOK:  cpu time      0.0108: real time      0.0117
    SETDIJ:  cpu time      1.3024: real time      1.3029
     EDDAV:  cpu time      1.4247: real time      1.4253
 BZINTS: Fermi energy:   -2.980648;   88.000000 electrons
         Band energy:-0.168432E+04;  BLOECHL correction:   -0.049466
       DOS:  cpu time      0.0046: real time      0.0046
    CHARGE:  cpu time      0.2070: real time      0.2072
    MIXING:  cpu time      0.0052: real time      0.0052
    --------------------------------------------
      LOOP:  cpu time      2.9548: real time      2.9569

 eigenvalue-minimisations  :  2824
 total energy-change (2. order) : 0.1445003E+03  (-0.5156749E+02)
 number of electron      88.0000000 magnetization       0.3559572
 augmentation part       -1.7901829 magnetization      -0.8310782

 Broyden mixing:
  rms(total) = 0.86444E+02    rms(broyden)= 0.86444E+02
  rms(prec ) = 0.87482E+02
  weight for this iteration     100.00

 eigenvalues of (default mixing * dielectric matrix)
  average eigenvalue GAMMA=   0.3526
  0.5891  0.2344  0.2344

 Free energy of the ion-electron system (eV)
  ---------------------------------------------------
  alpha Z        PSCENC =       241.49684495
  Ewald energy   TEWEN  =     -4998.10580274
  -Hartree energ DENC   =     -1528.56221303
  -exchange      EXHF   =         0.00000000
  -V(xc)+E(xc)   XCENC  =       248.65205691
  PAW double counting   =   1447018.85232217 -1447186.15398725
  entropy T*S    EENTRO =         0.00000000
  eigenvalues    EBANDS =     -1684.32333038
  atomic energy  EATOM  =      7554.24223230
  Solvation  Ediel_sol  =         0.00000000
  ---------------------------------------------------
  free energy    TOTEN  =      -333.90187707 eV

  energy without entropy =     -333.90187707  energy(sigma->0) =     -333.90187707


--------------------------------------------------------------------------------------------------------




--------------------------------------- Iteration      1(   9)  ---------------------------------------


    POTLOK:  cpu time      0.0110: real time      0.0119
    SETDIJ:  cpu time      1.3090: real time      1.3097
     EDDAV:  cpu time      1.3268: real time      1.3274
 BZINTS: Fermi energy:   -9.610695;   88.000000 electrons
         Band energy:-0.177316E+04;  BLOECHL correction:   -0.006263
       DOS:  cpu time      0.0043: real time      0.0043
    CHARGE:  cpu time      0.2076: real time      0.2076
    MIXING:  cpu time      0.0053: real time      0.0053
    --------------------------------------------
      LOOP:  cpu time      2.8640: real time      2.8663

 eigenvalue-minimisations  :  2600
 total energy-change (2. order) : 0.1632575E+02  (-0.1299712E+02)
 number of electron      88.0000000 magnetization       0.1239189
 augmentation part        8.6827471 magnetization      -0.0476670

 Broyden mixing:
  rms(total) = 0.84609E+02    rms(broyden)= 0.84609E+02
  rms(prec ) = 0.86312E+02
  weight for this iteration     100.00

 eigenvalues of (default mixing * dielectric matrix)
  average eigenvalue GAMMA=   0.3152
  0.5602  0.2843  0.2843  0.1319

 Free energy of the ion-electron system (eV)
  ---------------------------------------------------
  alpha Z        PSCENC =       241.49684495
  Ewald energy   TEWEN  =     -4998.10580274
  -Hartree energ DENC   =     -1466.88153287
  -exchange      EXHF   =         0.00000000
  -V(xc)+E(xc)   XCENC  =       246.94411702
  PAW double counting   =   1335255.10434205 -1335377.21874121
  entropy T*S    EENTRO =         0.00000000
  eigenvalues    EBANDS =     -1773.15758418
  atomic energy  EATOM  =      7554.24223230
  Solvation  Ediel_sol  =         0.00000000
  ---------------------------------------------------
  free energy    TOTEN  =      -317.57612469 eV

  energy without entropy =     -317.57612469  energy(sigma->0) =     -317.57612469


--------------------------------------------------------------------------------------------------------




--------------------------------------- Iteration      1(  10)  ---------------------------------------


    POTLOK:  cpu time      0.0108: real time      0.0120
    SETDIJ:  cpu time      1.2991: real time      1.2996
     EDDAV:  cpu time      1.3419: real time      1.3425
 BZINTS: Fermi energy:  -10.239813;   88.000000 electrons
         Band energy:-0.167920E+04;  BLOECHL correction:   -0.002742
       DOS:  cpu time      0.0043: real time      0.0043
    CHARGE:  cpu time      0.2092: real time      0.2093
    MIXING:  cpu time      0.0043: real time      0.0043
    --------------------------------------------
      LOOP:  cpu time      2.8696: real time      2.8720

 eigenvalue-minimisations  :  2648
 total energy-change (2. order) : 0.4702342E+02  (-0.4308883E+01)
 number of electron      88.0000000 magnetization      -0.8734985
 augmentation part        8.6483330 magnetization      -1.4705770

 Broyden mixing:
  rms(total) = 0.83619E+02    rms(broyden)= 0.83619E+02
  rms(prec ) = 0.85171E+02
  weight for this iteration     100.00

 eigenvalues of (default mixing * dielectric matrix)
  average eigenvalue GAMMA=   0.5083
  0.6312  0.6276  0.5495  0.5495  0.1837

 Free energy of the ion-electron system (eV)
  ---------------------------------------------------
  alpha Z        PSCENC =       241.49684495
  Ewald energy   TEWEN  =     -4998.10580274
  -Hartree energ DENC   =     -1504.97872468
  -exchange      EXHF   =         0.00000000
  -V(xc)+E(xc)   XCENC  =       248.46948774
  PAW double counting   =   1278000.28282068 -1278132.76215166
  entropy T*S    EENTRO =         0.00000000
  eigenvalues    EBANDS =     -1679.19741594
  atomic energy  EATOM  =      7554.24223230
  Solvation  Ediel_sol  =         0.00000000
  ---------------------------------------------------
  free energy    TOTEN  =      -270.55270935 eV

  energy without entropy =     -270.55270935  energy(sigma->0) =     -270.55270935


--------------------------------------------------------------------------------------------------------




--------------------------------------- Iteration      1(  11)  ---------------------------------------


    POTLOK:  cpu time      0.0108: real time      0.0118
    SETDIJ:  cpu time      1.3082: real time      1.3088
     EDDAV:  cpu time      1.3723: real time      1.3729
 BZINTS: Fermi energy:  -10.288222;   88.000000 electrons
         Band energy:-0.172573E+04;  BLOECHL correction:   -0.002042
       DOS:  cpu time      0.0044: real time      0.0044
    CHARGE:  cpu time      0.2098: real time      0.2103
    MIXING:  cpu time      0.0049: real time      0.0049
    --------------------------------------------
      LOOP:  cpu time      2.9105: real time      2.9131

 eigenvalue-minimisations  :  2716
 total energy-change (2. order) :-0.2320671E+02  (-0.2111404E+01)
 number of electron      88.0000000 magnetization      14.7445763
 augmentation part        8.8914028 magnetization      15.9012929

 Broyden mixing:
  rms(total) = 0.84085E+02    rms(broyden)= 0.84085E+02
  rms(prec ) = 0.85712E+02
  weight for this iteration     100.00

 eigenvalues of (default mixing * dielectric matrix)
  average eigenvalue GAMMA=   0.5926
  0.7452  0.7452  0.6343  0.6216  0.6216  0.1876

 Free energy of the ion-electron system (eV)
  ---------------------------------------------------
  alpha Z        PSCENC =       241.49684495
  Ewald energy   TEWEN  =     -4998.10580274
  -Hartree energ DENC   =     -1483.04658699
  -exchange      EXHF   =         0.00000000
  -V(xc)+E(xc)   XCENC  =       248.66842351
  PAW double counting   =   1263866.60813416 -1263997.89453187
  entropy T*S    EENTRO =         0.00000000
  eigenvalues    EBANDS =     -1725.72813276
  atomic energy  EATOM  =      7554.24223230
  Solvation  Ediel_sol  =         0.00000000
  ---------------------------------------------------
  free energy    TOTEN  =      -293.75941944 eV

  energy without entropy =     -293.75941944  energy(sigma->0) =     -293.75941944


--------------------------------------------------------------------------------------------------------




--------------------------------------- Iteration      1(  12)  ---------------------------------------


    POTLOK:  cpu time      0.0108: real time      0.0118
    SETDIJ:  cpu time      1.3125: real time      1.3131
     EDDAV:  cpu time      1.3058: real time      1.3069
 BZINTS: Fermi energy:    1.491391;   88.000000 electrons
         Band energy:-0.146588E+04;  BLOECHL correction:   -0.014254
       DOS:  cpu time      0.0039: real time      0.0039
    CHARGE:  cpu time      0.2109: real time      0.2110
    MIXING:  cpu time      0.0048: real time      0.0048
    --------------------------------------------
      LOOP:  cpu time      2.8488: real time      2.8516

 eigenvalue-minimisations  :  2524
 total energy-change (2. order) : 0.2361851E+03  (-0.8215779E+02)
 number of electron      88.0000000 magnetization      37.2216486
 augmentation part       -3.3486722 magnetization      31.4039760

 Broyden mixing:
  rms(total) = 0.72998E+02    rms(broyden)= 0.72998E+02
  rms(prec ) = 0.74114E+02
  weight for this iteration     100.00

 eigenvalues of (default mixing * dielectric matrix)
  average eigenvalue GAMMA=   0.8588
  1.6344  1.6344  0.7218  0.7218  0.1877  0.6215  0.4901

 Free energy of the ion-electron system (eV)
  ---------------------------------------------------
  alpha Z        PSCENC =       241.49684495
  Ewald energy   TEWEN  =     -4998.10580274
  -Hartree energ DENC   =     -1705.55160425
  -exchange      EXHF   =         0.00000000
  -V(xc)+E(xc)   XCENC  =       432.53543655
  PAW double counting   =   1069491.97496614 -1069608.29059948
  entropy T*S    EENTRO =         0.00000000
  eigenvalues    EBANDS =     -1465.87577447
  atomic energy  EATOM  =      7554.24223230
  Solvation  Ediel_sol  =         0.00000000
  ---------------------------------------------------
  free energy    TOTEN  =       -57.57430101 eV

  energy without entropy =      -57.57430101  energy(sigma->0) =      -57.57430101


--------------------------------------------------------------------------------------------------------




--------------------------------------- Iteration      1(  13)  ---------------------------------------


    POTLOK:  cpu time      0.0112: real time      0.0120
    SETDIJ:  cpu time      1.2469: real time      1.2476
     EDDAV:  cpu time      1.6501: real time      1.6509
 BZINTS: Fermi energy:    5.925693;   88.000000 electrons
         Band energy:-0.114803E+04;  BLOECHL correction:   -0.030066
       DOS:  cpu time      0.0036: real time      0.0036
    CHARGE:  cpu time      0.2076: real time      0.2078
    MIXING:  cpu time      0.0050: real time      0.0050
    --------------------------------------------
      LOOP:  cpu time      3.1244: real time      3.1269

 eigenvalue-minimisations  :  3416
 total energy-change (2. order) : 0.2512227E+03  (-0.7860104E+02)
 number of electron      88.0000000 magnetization      34.2256569
 augmentation part       -2.0540391 magnetization      34.1888909

 Broyden mixing:
  rms(total) = 0.50177E+02    rms(broyden)= 0.50177E+02
  rms(prec ) = 0.54006E+02
  weight for this iteration     100.00

 eigenvalues of (default mixing * dielectric matrix)
  average eigenvalue GAMMA=   0.7821
  1.6916  1.6916  0.6918  0.6918  0.6323  0.1881  0.3348  0.3348

 Free energy of the ion-electron system (eV)
  ---------------------------------------------------
  alpha Z        PSCENC =       241.49684495
  Ewald energy   TEWEN  =     -4998.10580274
  -Hartree energ DENC   =     -2312.41784424
  -exchange      EXHF   =         0.00000000
  -V(xc)+E(xc)   XCENC  =       821.49817178
  PAW double counting   =    347408.46402256  -347373.50055260
  entropy T*S    EENTRO =         0.00000000
  eigenvalues    EBANDS =     -1148.02863406
  atomic energy  EATOM  =      7554.24223230
  Solvation  Ediel_sol  =         0.00000000
  ---------------------------------------------------
  free energy    TOTEN  =       193.64843795 eV

  energy without entropy =      193.64843795  energy(sigma->0) =      193.64843795


--------------------------------------------------------------------------------------------------------




--------------------------------------- Iteration      1(  14)  ---------------------------------------


    POTLOK:  cpu time      0.0112: real time      0.0120
    SETDIJ:  cpu time      1.2154: real time      1.2159
     EDDAV:  cpu time      1.7367: real time      1.7380
 BZINTS: Fermi energy:    4.533175;   88.000000 electrons
         Band energy:-0.191078E+04;  BLOECHL correction:   -0.507434
       DOS:  cpu time      0.0054: real time      0.0054
    CHARGE:  cpu time      0.2078: real time      0.2079
    MIXING:  cpu time      0.0061: real time      0.0061
    --------------------------------------------
      LOOP:  cpu time      3.1826: real time      3.1852

 eigenvalue-minimisations  :  3616
 total energy-change (2. order) :-0.1087611E+04  (-0.8347647E+03)
 number of electron      88.0003041 magnetization      35.3788668
 augmentation part       -1.5442471 magnetization      32.7815053

 Broyden mixing:
  rms(total) = 0.59720E+02    rms(broyden)= 0.59720E+02
  rms(prec ) = 0.63788E+02
  weight for this iteration     100.00

 eigenvalues of (default mixing * dielectric matrix)
  average eigenvalue GAMMA=   0.7165
  1.7134  1.7134  0.6881  0.6881  0.6306  0.1879  0.3889  0.3889  0.0491

 Free energy of the ion-electron system (eV)
  ---------------------------------------------------
  alpha Z        PSCENC =       241.49684495
  Ewald energy   TEWEN  =     -4998.10580274
  -Hartree energ DENC   =     -2580.50487073
  -exchange      EXHF   =         0.00000000
  -V(xc)+E(xc)   XCENC  =       813.00816157
  PAW double counting   =    226562.41076979  -226575.72905870
  entropy T*S    EENTRO =         0.00000000
  eigenvalues    EBANDS =     -1910.78067434
  atomic energy  EATOM  =      7554.24223230
  Solvation  Ediel_sol  =         0.00000000
  ---------------------------------------------------
  free energy    TOTEN  =      -893.96239790 eV

  energy without entropy =     -893.96239790  energy(sigma->0) =     -893.96239790


--------------------------------------------------------------------------------------------------------




--------------------------------------- Iteration      1(  15)  ---------------------------------------


    POTLOK:  cpu time      0.0107: real time      0.0118
    SETDIJ:  cpu time      1.2040: real time      1.2048
     EDDAV:  cpu time      1.4719: real time      1.4726
 BZINTS: Fermi energy:    4.437572;   88.000000 electrons
         Band energy:-0.109785E+04;  BLOECHL correction:   -0.199824
       DOS:  cpu time      0.0044: real time      0.0044
    CHARGE:  cpu time      0.2080: real time      0.2082
    MIXING:  cpu time      0.0063: real time      0.0063
    --------------------------------------------
      LOOP:  cpu time      2.9055: real time      2.9081

 eigenvalue-minimisations  :  2964
 total energy-change (2. order) : 0.8012660E+03  (-0.2302293E+03)
 number of electron      87.9999942 magnetization      36.7437195
 augmentation part       -1.6645767 magnetization      28.3947253

 Broyden mixing:
  rms(total) = 0.17217E+03    rms(broyden)= 0.17217E+03
  rms(prec ) = 0.17392E+03
  weight for this iteration     100.00

 eigenvalues of (default mixing * dielectric matrix)
  average eigenvalue GAMMA=   0.6825
  1.7836  1.7836  0.6837  0.6837  0.6272  0.4565  0.4565  0.1879  0.1448  0.0169

 Free energy of the ion-electron system (eV)
  ---------------------------------------------------
  alpha Z        PSCENC =       241.49684495
  Ewald energy   TEWEN  =     -4998.10580274
  -Hartree energ DENC   =     -2636.45852616
  -exchange      EXHF   =         0.00000000
  -V(xc)+E(xc)   XCENC  =       839.56966269
  PAW double counting   =    194609.14340625  -194604.73340240
  entropy T*S    EENTRO =         0.00000000
  eigenvalues    EBANDS =     -1097.85081702
  atomic energy  EATOM  =      7554.24223230
  Solvation  Ediel_sol  =         0.00000000
  ---------------------------------------------------
  free energy    TOTEN  =       -92.69640212 eV

  energy without entropy =      -92.69640212  energy(sigma->0) =      -92.69640212


--------------------------------------------------------------------------------------------------------




--------------------------------------- Iteration      1(  16)  ---------------------------------------


    POTLOK:  cpu time      0.0108: real time      0.0121
    SETDIJ:  cpu time      1.2018: real time      1.2025
     EDDAV:  cpu time      1.6347: real time      1.6359
 BZINTS: Fermi energy:    3.634058;   88.000000 electrons
         Band energy:-0.117240E+04;  BLOECHL correction:   -0.044926
       DOS:  cpu time      0.0049: real time      0.0049
    CHARGE:  cpu time      0.2088: real time      0.2089
    MIXING:  cpu time      0.0057: real time      0.0057
    --------------------------------------------
      LOOP:  cpu time      3.0668: real time      3.0700

 eigenvalue-minimisations  :  3344
 total energy-change (2. order) :-0.1066503E+03  (-0.4513299E+02)
 number of electron      87.9999798 magnetization      36.1656122
 augmentation part       -1.5605749 magnetization      25.7983701

 Broyden mixing:
  rms(total) = 0.18080E+03    rms(broyden)= 0.18080E+03
  rms(prec ) = 0.18291E+03
  weight for this iteration     100.00

 eigenvalues of (default mixing * dielectric matrix)
  average eigenvalue GAMMA=   0.6374
  1.7918  1.7918  0.6862  0.6862  0.6222  0.4655  0.4655  0.1879  0.1453  0.1453
  0.0237

 Free energy of the ion-electron system (eV)
  ---------------------------------------------------
  alpha Z        PSCENC =       241.49684495
  Ewald energy   TEWEN  =     -4998.10580274
  -Hartree energ DENC   =     -2708.81234964
  -exchange      EXHF   =         0.00000000
  -V(xc)+E(xc)   XCENC  =       871.27873715
  PAW double counting   =    180591.85961387  -180578.90756226
  entropy T*S    EENTRO =         0.00000000
  eigenvalues    EBANDS =     -1172.39837618
  atomic energy  EATOM  =      7554.24223230
  Solvation  Ediel_sol  =         0.00000000
  ---------------------------------------------------
  free energy    TOTEN  =      -199.34666255 eV

  energy without entropy =     -199.34666255  energy(sigma->0) =     -199.34666255


--------------------------------------------------------------------------------------------------------




--------------------------------------- Iteration      1(  17)  ---------------------------------------


    POTLOK:  cpu time      0.0112: real time      0.0120
    SETDIJ:  cpu time      1.1992: real time      1.1997
     EDDAV:  cpu time      1.6057: real time      1.6064
 BZINTS: Fermi energy:    3.521548;   88.000000 electrons
         Band energy:-0.123409E+04;  BLOECHL correction:   -0.069487
       DOS:  cpu time      0.0044: real time      0.0044
    CHARGE:  cpu time      0.2074: real time      0.2074
    MIXING:  cpu time      0.0052: real time      0.0052
    --------------------------------------------
      LOOP:  cpu time      3.0330: real time      3.0352

 eigenvalue-minimisations  :  3280
 total energy-change (2. order) :-0.5471669E+02  (-0.8381533E+02)
 number of electron      87.9999483 magnetization      38.3213562
 augmentation part       -1.8687045 magnetization      26.0180097

 Broyden mixing:
  rms(total) = 0.18083E+03    rms(broyden)= 0.18083E+03
  rms(prec ) = 0.18294E+03
  weight for this iteration     100.00

 eigenvalues of (default mixing * dielectric matrix)
  average eigenvalue GAMMA=   0.5998
  1.8150  1.8150  0.6828  0.6828  0.6238  0.4749  0.4749  0.1879  0.2074  0.1044
  0.1044  0.0245

 Free energy of the ion-electron system (eV)
  ---------------------------------------------------
  alpha Z        PSCENC =       241.49684495
  Ewald energy   TEWEN  =     -4998.10580274
  -Hartree energ DENC   =     -2691.68345609
  -exchange      EXHF   =         0.00000000
  -V(xc)+E(xc)   XCENC  =       860.36388100
  PAW double counting   =    179825.10276247  -179811.38936436
  entropy T*S    EENTRO =         0.00000000
  eigenvalues    EBANDS =     -1234.09045411
  atomic energy  EATOM  =      7554.24223230
  Solvation  Ediel_sol  =         0.00000000
  ---------------------------------------------------
  free energy    TOTEN  =      -254.06335657 eV

  energy without entropy =     -254.06335657  energy(sigma->0) =     -254.06335657


--------------------------------------------------------------------------------------------------------




--------------------------------------- Iteration      1(  18)  ---------------------------------------


    POTLOK:  cpu time      0.0110: real time      0.0117
    SETDIJ:  cpu time      1.2050: real time      1.2056
     EDDAV:  cpu time      1.5989: real time      1.5997
 BZINTS: Fermi energy:    3.243629;   88.000000 electrons
         Band energy:-0.128395E+04;  BLOECHL correction:   -0.664832
       DOS:  cpu time      0.0057: real time      0.0057
    CHARGE:  cpu time      0.2089: real time      0.2090
    MIXING:  cpu time      0.0058: real time      0.0058
    --------------------------------------------
      LOOP:  cpu time      3.0354: real time      3.0375

 eigenvalue-minimisations  :  3264
 total energy-change (2. order) :-0.9569684E+02  (-0.4137442E+02)
[...]
     EDDAV:  cpu time      1.5698: real time      1.5712
 BZINTS: Fermi energy:   -2.381530;   88.000000 electrons
         Band energy:-0.171457E+11;  BLOECHL correction:************
       DOS:  cpu time      0.0110: real time      0.0111
    CHARGE:  cpu time      0.2089: real time      0.2090
    MIXING:  cpu time      0.0131: real time      0.0131
    --------------------------------------------
      LOOP:  cpu time      3.1303: real time      3.1340

 eigenvalue-minimisations  :  3076
 total energy-change (2. order) :-0.8314150E+10  (-0.1758302E+11)
 number of electron      89.3929905 magnetization      -1.8957070
 augmentation part        0.6107526 magnetization      -4.1231153

 Broyden mixing:
  rms(total) = 0.36974E+03    rms(broyden)= 0.36974E+03
  rms(prec ) = 0.36978E+03
  weight for this iteration     100.00

 eigenvalues of (default mixing * dielectric matrix)
  average eigenvalue GAMMA=   0.5430
  2.5142  1.4332  1.4332  1.3176  1.3176  0.9978  0.9978  0.7974  0.7974  0.6429
  0.6429  0.3678  0.3678  0.7798  0.7202  0.6223  0.5470  0.5470  0.4942  0.4942
  0.5677  0.5212  0.4183  0.4183  0.3737  0.2716  0.2716  0.2780  0.2052  0.0950
  0.0950  0.1188  0.1188  0.0484  0.0352  0.0352  0.0046  0.0044  0.0044  0.0020

 Free energy of the ion-electron system (eV)
  ---------------------------------------------------
  alpha Z        PSCENC =       241.49684495
  Ewald energy   TEWEN  =     -4998.10580274
  -Hartree energ DENC   =     -2483.52419267
  -exchange      EXHF   =         0.00000000
  -V(xc)+E(xc)   XCENC  =       314.33354074
  PAW double counting   =     44259.21445749   -44294.48917023
  entropy T*S    EENTRO =         0.00000000
  eigenvalues    EBANDS = ******************
  atomic energy  EATOM  =      7554.24223230
  Solvation  Ediel_sol  =         0.00000000
  ---------------------------------------------------
  free energy    TOTEN  = ****************** eV

  energy without entropy =******************  energy(sigma->0) =******************


--------------------------------------------------------------------------------------------------------




--------------------------------------- Iteration      1( 121)  ---------------------------------------


    POTLOK:  cpu time      0.0106: real time      0.0118
    SETDIJ:  cpu time      1.3023: real time      1.3031
     EDDAV:  cpu time      1.5784: real time      1.5797
 BZINTS: Fermi energy:   -3.615703;   88.000000 electrons
         Band energy:-0.288118E+11;  BLOECHL correction:************
       DOS:  cpu time      0.0131: real time      0.0131
    CHARGE:  cpu time      0.2112: real time      0.2114
    MIXING:  cpu time      0.0116: real time      0.0116
    --------------------------------------------
      LOOP:  cpu time      3.1272: real time      3.1307

 eigenvalue-minimisations  :  3112
 total energy-change (2. order) :-0.1166617E+11  (-0.3044823E+11)
 number of electron      88.9190540 magnetization      -1.3968537
 augmentation part        2.1118058 magnetization       1.4494395

 Broyden mixing:
  rms(total) = 0.39277E+03    rms(broyden)= 0.39277E+03
  rms(prec ) = 0.39281E+03
  weight for this iteration     100.00

 eigenvalues of (default mixing * dielectric matrix)
  average eigenvalue GAMMA=   0.5410
  2.5137  1.4212  1.4212  1.3201  1.3201  0.9864  0.9864  0.7895  0.7895  0.6442
  0.6442  0.3938  0.3938  0.7689  0.7689  0.5834  0.5834  0.5396  0.5396  0.6022
  0.5443  0.5203  0.4103  0.4103  0.4003  0.3746  0.2735  0.2735  0.2194  0.1770
  0.1770  0.0740  0.0999  0.0999  0.0319  0.0319  0.0277  0.0112  0.0112  0.0025
  0.0009

 Free energy of the ion-electron system (eV)
  ---------------------------------------------------
  alpha Z        PSCENC =       241.49684495
  Ewald energy   TEWEN  =     -4998.10580274
  -Hartree energ DENC   =     -2433.86967626
  -exchange      EXHF   =         0.00000000
  -V(xc)+E(xc)   XCENC  =       307.76773880
  PAW double counting   =     43609.13605290   -43648.10430662
  entropy T*S    EENTRO =         0.00000000
  eigenvalues    EBANDS = ******************
  atomic energy  EATOM  =      7554.24223230
  Solvation  Ediel_sol  =         0.00000000
  ---------------------------------------------------
  free energy    TOTEN  = ****************** eV

  energy without entropy =******************  energy(sigma->0) =******************


--------------------------------------------------------------------------------------------------------




--------------------------------------- Iteration      1( 122)  ---------------------------------------


    POTLOK:  cpu time      0.0107: real time      0.0120
    SETDIJ:  cpu time      1.3090: real time      1.3096
     EDDAV:  cpu time      1.5454: real time      1.5469
 BZINTS: Fermi energy:   -8.083317;   88.000000 electrons
         Band energy:-0.983429E+11;  BLOECHL correction:************
       DOS:  cpu time      0.0180: real time      0.0180
    CHARGE:  cpu time      0.2093: real time      0.2094
    MIXING:  cpu time      0.0127: real time      0.0127
    --------------------------------------------
      LOOP:  cpu time      3.1052: real time      3.1087

 eigenvalue-minimisations  :  3004
 total energy-change (2. order) :-0.6953107E+11  (-0.1153586E+12)
 number of electron      88.2849906 magnetization      -0.6706493
 augmentation part        3.9079718 magnetization       6.8463548

 Broyden mixing:
  rms(total) = 0.48564E+03    rms(broyden)= 0.48564E+03
  rms(prec ) = 0.48570E+03
  weight for this iteration     100.00

 eigenvalues of (default mixing * dielectric matrix)
  average eigenvalue GAMMA=   0.5349
  2.5512  1.4261  1.4261  1.3317  1.3317  0.9712  0.9712  0.7931  0.7931  0.6519
  0.6519  0.8693  0.8060  0.3225  0.3225  0.5716  0.5716  0.6071  0.5183  0.5183
  0.5275  0.5275  0.5187  0.2201  0.2201  0.3918  0.3501  0.3501  0.3122  0.2559
  0.2559  0.1401  0.1401  0.0456  0.0400  0.0400  0.0498  0.0498  0.0138  0.0044
  0.0044  0.0007

 Free energy of the ion-electron system (eV)
  ---------------------------------------------------
  alpha Z        PSCENC =       241.49684495
  Ewald energy   TEWEN  =     -4998.10580274
  -Hartree energ DENC   =     -2426.20536379
  -exchange      EXHF   =         0.00000000
  -V(xc)+E(xc)   XCENC  =       306.46370828
  PAW double counting   =     44319.59385148   -44360.42402701
  entropy T*S    EENTRO =         0.00000000
  eigenvalues    EBANDS = ******************
  atomic energy  EATOM  =      7554.24223230
  Solvation  Ediel_sol  =         0.00000000
  ---------------------------------------------------
  free energy    TOTEN  = ****************** eV

  energy without entropy =******************  energy(sigma->0) =******************


--------------------------------------------------------------------------------------------------------




--------------------------------------- Iteration      1( 123)  ---------------------------------------


    POTLOK:  cpu time      0.0107: real time      0.0120
    SETDIJ:  cpu time      1.3028: real time      1.3037
     EDDAV:  cpu time      1.5639: real time      1.5647
 BZINTS: Fermi energy:   -8.142549;   88.000000 electrons
         Band energy:-0.789749E+11;  BLOECHL correction:************
       DOS:  cpu time      0.0168: real time      0.0168
    CHARGE:  cpu time      0.2091: real time      0.2092
    MIXING:  cpu time      0.0130: real time      0.0130
    --------------------------------------------
      LOOP:  cpu time      3.1163: real time      3.1194

 eigenvalue-minimisations  :  3052
 total energy-change (2. order) : 0.1936799E+11  (-0.8966931E+11)
 number of electron      88.1632714 magnetization      -1.8826597
 augmentation part        4.4864581 magnetization       3.9886569

 Broyden mixing:
  rms(total) = 0.50124E+03    rms(broyden)= 0.50124E+03
  rms(prec ) = 0.50130E+03
  weight for this iteration     100.00

 eigenvalues of (default mixing * dielectric matrix)
  average eigenvalue GAMMA=   0.5346
  2.5871  1.4661  1.4661  1.3041  1.3041  1.0376  0.8207  0.8207  0.6897  0.6897
  0.8781  0.8153  0.8153  0.1898  0.3202  0.3202  0.5694  0.5694  0.2978  0.2978
  0.6146  0.5279  0.5279  0.5574  0.5286  0.4431  0.3501  0.3501  0.3246  0.3246
  0.2626  0.2626  0.1799  0.1799  0.0922  0.0922  0.0326  0.0326  0.0218  0.0132
  0.0068  0.0011  0.0011

 Free energy of the ion-electron system (eV)
  ---------------------------------------------------
  alpha Z        PSCENC =       241.49684495
  Ewald energy   TEWEN  =     -4998.10580274
  -Hartree energ DENC   =     -2435.49466828
  -exchange      EXHF   =         0.00000000
  -V(xc)+E(xc)   XCENC  =       303.78451061
  PAW double counting   =     43308.50761449   -43352.69478520
  entropy T*S    EENTRO =         0.00000000
  eigenvalues    EBANDS = ******************
  atomic energy  EATOM  =      7554.24223230
  Solvation  Ediel_sol  =         0.00000000
  ---------------------------------------------------
  free energy    TOTEN  = ****************** eV

  energy without entropy =******************  energy(sigma->0) =******************


--------------------------------------------------------------------------------------------------------




--------------------------------------- Iteration      1( 124)  ---------------------------------------


    POTLOK:  cpu time      0.0112: real time      0.0120
    SETDIJ:  cpu time      1.3142: real time      1.3160
     EDDAV:  cpu time      1.4809: real time      1.4818
 BZINTS: Fermi energy:  -16.169119;   88.000000 electrons
         Band energy:-0.801061E+11;  BLOECHL correction:************
       DOS:  cpu time      0.0198: real time      0.0198
    CHARGE:  cpu time      0.2088: real time      0.2089
    MIXING:  cpu time      0.0145: real time      0.0145
    --------------------------------------------
      LOOP:  cpu time      3.0493: real time      3.0530

 eigenvalue-minimisations  :  2824
 total energy-change (2. order) :-0.1131175E+10  (-0.8240588E+11)
 number of electron      88.0927438 magnetization      -2.2286568
 augmentation part        5.6490260 magnetization      12.9971819

 Broyden mixing:
  rms(total) = 0.54071E+03    rms(broyden)= 0.54071E+03
  rms(prec ) = 0.54077E+03
  weight for this iteration     100.00

 eigenvalues of (default mixing * dielectric matrix)
  average eigenvalue GAMMA=   0.5381
  2.3964  1.8826  1.4260  1.2475  1.2475  1.0611  0.5240  0.5240  0.8752  0.7917
  0.7917  0.8074  0.8074  0.6372  0.6372  0.2043  0.6748  0.6748  0.6270  0.5116
  0.5116  0.5602  0.5335  0.4435  0.4111  0.4111  0.2938  0.2938  0.3542  0.3542
  0.1834  0.1834  0.2264  0.2264  0.0879  0.0879  0.0420  0.0420  0.0246  0.0400
  0.0055  0.0055  0.0005  0.0053

 Free energy of the ion-electron system (eV)
  ---------------------------------------------------
  alpha Z        PSCENC =       241.49684495
  Ewald energy   TEWEN  =     -4998.10580274
  -Hartree energ DENC   =     -2384.56279552
  -exchange      EXHF   =         0.00000000
  -V(xc)+E(xc)   XCENC  =       297.92169411
  PAW double counting   =     42757.80406195   -42805.26425231
  entropy T*S    EENTRO =         0.00000000
  eigenvalues    EBANDS = ******************
  atomic energy  EATOM  =      7554.24223230
  Solvation  Ediel_sol  =         0.00000000
  ---------------------------------------------------
  free energy    TOTEN  = ****************** eV

  energy without entropy =******************  energy(sigma->0) =******************


--------------------------------------------------------------------------------------------------------




--------------------------------------- Iteration      1( 125)  ---------------------------------------


    POTLOK:  cpu time      0.0107: real time      0.0119
    SETDIJ:  cpu time      1.2973: real time      1.2988
     EDDAV:  cpu time      1.5862: real time      1.5876
 BZINTS: Fermi energy:  -24.721187;   88.000000 electrons
         Band energy:-0.388454E+12;  BLOECHL correction:************
       DOS:  cpu time      0.0223: real time      0.0223
    CHARGE:  cpu time      0.2185: real time      0.2188
    MIXING:  cpu time      0.0141: real time      0.0141
    --------------------------------------------
      LOOP:  cpu time      3.1492: real time      3.1536

 eigenvalue-minimisations  :  3116
 total energy-change (2. order) :-0.3083481E+12  (-0.3935457E+12)
 number of electron      87.9833681 magnetization      -4.1214958
 augmentation part        6.8970657 magnetization       9.8488073

 Broyden mixing:
  rms(total) = 0.51539E+03    rms(broyden)= 0.51539E+03
  rms(prec ) = 0.51547E+03
  weight for this iteration     100.00

 eigenvalues of (default mixing * dielectric matrix)
  average eigenvalue GAMMA=   0.5081
  1.8306  1.8306  1.4238  1.0362  1.0362  0.9376  0.9376  0.9124  0.4715  0.4715
  0.7408  0.7408  0.5821  0.5821  0.6742  0.6742  0.6658  0.5962  0.5084  0.4615
  0.4615  0.4039  0.4039  0.3809  0.2973  0.2126  0.2126  0.1314  0.1314  0.1697
  0.1697  0.0613  0.0613  0.0578  0.0112  0.0112  0.0049  0.0008  0.0058  0.0204

 Free energy of the ion-electron system (eV)
  ---------------------------------------------------
  alpha Z        PSCENC =       241.49684495
  Ewald energy   TEWEN  =     -4998.10580274
  -Hartree energ DENC   =     -2371.57257033
  -exchange      EXHF   =         0.00000000
  -V(xc)+E(xc)   XCENC  =       298.21041542
  PAW double counting   =     42550.70534621   -42599.61906139
  entropy T*S    EENTRO =         0.00000000
  eigenvalues    EBANDS = ******************
  atomic energy  EATOM  =      7554.24223230
  Solvation  Ediel_sol  =         0.00000000
  ---------------------------------------------------
  free energy    TOTEN  = ****************** eV

  energy without entropy =******************  energy(sigma->0) =******************


--------------------------------------------------------------------------------------------------------




--------------------------------------- Iteration      1( 126)  ---------------------------------------


    POTLOK:  cpu time      0.0107: real time      0.0122
    SETDIJ:  cpu time      1.3057: real time      1.3065
     EDDAV:  cpu time      1.5178: real time      1.5194
 BZINTS: Fermi energy: -535.395887;   88.000000 electrons
         Band energy:-0.203293E+12;  BLOECHL correction:************
       DOS:  cpu time      0.0181: real time      0.0181
    CHARGE:  cpu time      0.2113: real time      0.2116
    MIXING:  cpu time      0.0116: real time      0.0116
    --------------------------------------------
      LOOP:  cpu time      3.0751: real time      3.0794

 eigenvalue-minimisations  :  2960
 total energy-change (2. order) : 0.1851607E+12  (-0.2032955E+12)
 number of electron      87.9819240 magnetization      -4.4564708
 augmentation part        5.0126142 magnetization       9.0764609

 Broyden mixing:
  rms(total) = 0.52155E+03    rms(broyden)= 0.52155E+03
  rms(prec ) = 0.52161E+03
  weight for this iteration     100.00

 eigenvalues of (default mixing * dielectric matrix)
  average eigenvalue GAMMA=   0.5157
  1.9542  1.5920  1.4430  1.0745  1.0745  0.9101  0.9101  0.9273  0.7496  0.7496
  0.4875  0.4875  0.6990  0.6990  0.6596  0.6596  0.6600  0.4951  0.4951  0.5940
  0.5307  0.4598  0.4598  0.4014  0.4014  0.3437  0.2525  0.2525  0.0922  0.0922
  0.1563  0.1029  0.1029  0.0531  0.0531  0.0172  0.0172  0.0259  0.0038  0.0010
  0.0016

 Free energy of the ion-electron system (eV)
  ---------------------------------------------------
  alpha Z        PSCENC =       241.49684495
  Ewald energy   TEWEN  =     -4998.10580274
  -Hartree energ DENC   =     -2418.00532663
  -exchange      EXHF   =         0.00000000
  -V(xc)+E(xc)   XCENC  =       318.46760523
  PAW double counting   =     42151.90654612   -42244.94844746
  entropy T*S    EENTRO =         0.00000000
  eigenvalues    EBANDS = ******************
  atomic energy  EATOM  =      7554.24223230
  Solvation  Ediel_sol  =         0.00000000
  ---------------------------------------------------
  free energy    TOTEN  = ****************** eV

  energy without entropy =******************  energy(sigma->0) =******************


--------------------------------------------------------------------------------------------------------




--------------------------------------- Iteration      1( 127)  ---------------------------------------


    POTLOK:  cpu time      0.0106: real time      0.0118
    SETDIJ:  cpu time      1.3071: real time      1.3077
     EDDAV:  cpu time      1.5994: real time      1.6007
 BZINTS: Fermi energy:-1138.338721;   88.000000 electrons
         Band energy:-0.188406E+12;  BLOECHL correction:************
       DOS:  cpu time      0.0168: real time      0.0168
    CHARGE:  cpu time      0.2098: real time      0.2099
    MIXING:  cpu time      0.0133: real time      0.0133
    --------------------------------------------
      LOOP:  cpu time      3.1570: real time      3.1603

 eigenvalue-minimisations  :  3136
 total energy-change (2. order) : 0.1488782E+11  (-0.1888231E+12)
 number of electron      88.0070049 magnetization      -8.6740624
 augmentation part        7.7785237 magnetization       5.8559940

 Broyden mixing:
  rms(total) = 0.50657E+03    rms(broyden)= 0.50657E+03
  rms(prec ) = 0.50668E+03
  weight for this iteration     100.00

 eigenvalues of (default mixing * dielectric matrix)
  average eigenvalue GAMMA=   0.5357
  2.0890  1.7658  1.4346  1.0987  1.0987  0.9678  0.9678  0.9802  0.9087  0.9087
  0.4999  0.4999  0.7076  0.7076  0.5600  0.5600  0.6546  0.6114  0.5744  0.5744
  0.4889  0.4889  0.4813  0.4813  0.4117  0.4117  0.3445  0.2328  0.2328  0.1249
  0.1249  0.0648  0.0648  0.1276  0.1276  0.0240  0.0240  0.0397  0.0049  0.0007
  0.0012  0.0276

 Free energy of the ion-electron system (eV)
  ---------------------------------------------------
  alpha Z        PSCENC =       241.49684495
  Ewald energy   TEWEN  =     -4998.10580274
  -Hartree energ DENC   =     -2373.79337241
  -exchange      EXHF   =         0.00000000
  -V(xc)+E(xc)   XCENC  =       314.74230444
  PAW double counting   =     45606.00568927   -45673.44589570
  entropy T*S    EENTRO =         0.00000000
  eigenvalues    EBANDS = ******************
  atomic energy  EATOM  =      7554.24223230
  Solvation  Ediel_sol  =         0.00000000
  ---------------------------------------------------
  free energy    TOTEN  = ****************** eV

  energy without entropy =******************  energy(sigma->0) =******************


--------------------------------------------------------------------------------------------------------




--------------------------------------- Iteration      1( 128)  ---------------------------------------


    POTLOK:  cpu time      0.0109: real time      0.0113
    SETDIJ:  cpu time      1.3107: real time      1.3113
 -----------------------------------------------------------------------------
|                                                                             |
|     EEEEEEE  RRRRRR   RRRRRR   OOOOOOO  RRRRRR      ###     ###     ###     |
|     E        R     R  R     R  O     O  R     R     ###     ###     ###     |
|     E        R     R  R     R  O     O  R     R     ###     ###     ###     |
|     EEEEE    RRRRRR   RRRRRR   O     O  RRRRRR       #       #       #      |
|     E        R   R    R   R    O     O  R   R                               |
|     E        R    R   R    R   O     O  R    R      ###     ###     ###     |
|     EEEEEEE  R     R  R     R  OOOOOOO  R     R     ###     ###     ###     |
|                                                                             |
|     Error EDDDAV: Call to ZHEGV failed. Returncode = 900 2 16               |
|                                                                             |
|       ---->  I REFUSE TO CONTINUE WITH THIS SICK JOB ... BYE!!! <----       |
|                                                                             |
 -----------------------------------------------------------------------------

