 vasp.6.3.2 27Jun22 (build Jul  3 2023 11:46:21) complex                         
 executed on    LinuxNV_CrayMPICH date 2024.04.22  03:28:49
 running on    4 total cores
 distrk:  each k-point on    4 cores,    1 groups
 distr:  one band on NCORE=   1 cores,    4 groups


--------------------------------------------------------------------------------------------------------


 INCAR:
   ADDGRID = True
   ALGO = Fast
   EDIFF = 0.0001
   ENCUT = 520.0
   IBRION = -1
   ISIF = 3
   ISMEAR = -5
   ISPIN = 2
   LAECHG = True
   LASPH = True
   LCHARG = True
   LORBIT = 11
   LREAL = Auto
   LVHAR = True
   LWAVE = False
   MAGMOM = 1*7.0 4*0.6
   NELM = 1000
   NSW = 0
   PREC = Accurate
   SIGMA = 0.05

 POTCAR:    PAW_PBE Eu 23Dec2003                  
 POTCAR:    PAW_PBE Si 05Jan2001                  
 POTCAR:    PAW_PBE Ru_pv 28Jan2005               
 POTCAR:    PAW_PBE Eu 23Dec2003                  
   SHA256 =  ed303d27e7c5191953f9b15539336e6f36d9037c1d2e92e80c13d733697cb93d Eu/POTCAR             
   COPYR  = (c) Copyright 23Dec2003 Georg Kresse                                                    
   COPYR  = This file is part of the software VASP. Any use, copying, and all other rights are regul
   COPYR  = If you do not have a valid VASP license, you may not use, copy or distribute this file. 
   VRHFIN =Eu : [core=Kr4d]                                                                         
   LEXCH  = PE                                                                                      
   EATOM  =  2619.8085 eV,  192.5505 Ry                                                             
                                                                                                    
   TITEL  = PAW_PBE Eu 23Dec2003                                                                    
   LULTRA =        F    use ultrasoft PP ?                                                          
   IUNSCR =        1    unscreen: 0-lin 1-nonlin 2-no                                               
   RPACOR =    2.300    partial core radius                                                         
   POMASS =  151.965; ZVAL   =   17.000    mass and valenz                                          
   RCORE  =    2.800    outmost cutoff radius                                                       
   RWIGS  =    2.800; RWIGS  =    1.482    wigner-seitz radius (au A)                               
   ENMAX  =  249.668; ENMIN  =  187.251 eV                                                          
   RCLOC  =    2.308    cutoff for local pot                                                        
   LCOR   =        T    correct aug charges                                                         
   LPAW   =        T    paw PP                                                                      
   EAUG   =  549.628                                                                                
   DEXC   =    0.000                                                                                
   RMAX   =    2.870    core radius for proj-oper                                                   
   RAUG   =    1.300    factor for augmentation sphere                                              
   RDEP   =    2.887    radius for radial grids                                                     
   RDEPT  =    2.221    core radius for aug-charge                                                  
                                                                                                    
   Atomic configuration                                                                             
   14 entries                                                                                       
     n  l   j            E        occ.                                                              
     1  0  0.50    -48354.7667   2.0000                                                             
     2  0  0.50     -7939.6472   2.0000                                                             
     2  1  1.50     -7072.6637   6.0000                                                             
     3  0  0.50     -1747.1875   2.0000                                                             
     3  1  1.50     -1477.5221   6.0000                                                             
     3  2  2.50     -1117.4686  10.0000                                                             
     4  0  0.50      -346.8682   2.0000                                                             
     4  1  1.50      -258.1962   6.0000                                                             
     4  2  2.50      -134.7724  10.0000                                                             
     5  0  0.50       -44.6510   2.0000                                                             
     6  0  0.50        -3.6227   2.0000                                                             
     5  1  1.50       -23.7639   6.0000                                                             
     5  2  2.50        -1.3130   0.0000                                                             
     4  3  2.50        -2.7310   7.0000                                                             
   Description                                                                                      
     l       E           TYP  RCUT    TYP  RCUT                                                     
     0    -44.6510453     23  2.400                                                                 
     0     -3.6226685     23  2.400                                                                 
     1    -23.7638687     23  2.400                                                                 
     1     27.2116520     23  2.400                                                                 
     2     -1.3129622     23  2.500                                                                 
     2     13.6058260     23  2.500                                                                 
     3     -2.7309948     23  2.800                                                                 
     3     -3.4014565     23  2.800                                                                 
  local pseudopotential read in
  partial core-charges read in
  partial kinetic energy density read in
  atomic valenz-charges read in
  non local Contribution for L=            0  read in
    real space projection operators read in
  non local Contribution for L=            0  read in
    real space projection operators read in
  non local Contribution for L=            1  read in
    real space projection operators read in
  non local Contribution for L=            1  read in
    real space projection operators read in
  non local Contribution for L=            2  read in
    real space projection operators read in
  non local Contribution for L=            2  read in
    real space projection operators read in
  non local Contribution for L=            3  read in
    real space projection operators read in
  non local Contribution for L=            3  read in
    real space projection operators read in
    PAW grid and wavefunctions read in
 
   number of l-projection  operators is LMAX  =            8
   number of lm-projection operators is LMMAX =           32
 
 POTCAR:    PAW_PBE Si 05Jan2001                  
   SHA256 =  79d9987ad8750f624c4d6acb2a16d13abf6a777132adc04dc6c8399be72b42bb Si/POTCAR             
   COPYR  = (c) Copyright 05Jan2001 Georg Kresse                                                    
   COPYR  = This file is part of the software VASP. Any use, copying, and all other rights are regul
   COPYR  = If you do not have a valid VASP license, you may not use, copy or distribute this file. 
   VRHFIN =Si: s2p2                                                                                 
   LEXCH  = PE                                                                                      
   EATOM  =   103.0669 eV,    7.5752 Ry                                                             
                                                                                                    
   TITEL  = PAW_PBE Si 05Jan2001                                                                    
   LULTRA =        F    use ultrasoft PP ?                                                          
   IUNSCR =        1    unscreen: 0-lin 1-nonlin 2-no                                               
   RPACOR =    1.500    partial core radius                                                         
   POMASS =   28.085; ZVAL   =    4.000    mass and valenz                                          
   RCORE  =    1.900    outmost cutoff radius                                                       
   RWIGS  =    2.480; RWIGS  =    1.312    wigner-seitz radius (au A)                               
   ENMAX  =  245.345; ENMIN  =  184.009 eV                                                          
   ICORE  =        2    local potential                                                             
   LCOR   =        T    correct aug charges                                                         
   LPAW   =        T    paw PP                                                                      
   EAUG   =  322.069                                                                                
   DEXC   =    0.000                                                                                
   RMAX   =    1.950    core radius for proj-oper                                                   
   RAUG   =    1.300    factor for augmentation sphere                                              
   RDEP   =    1.993    radius for radial grids                                                     
   RDEPT  =    1.837    core radius for aug-charge                                                  
                                                                                                    
   Atomic configuration                                                                             
    6 entries                                                                                       
     n  l   j            E        occ.                                                              
     1  0  0.50     -1785.8828   2.0000                                                             
     2  0  0.50      -139.4969   2.0000                                                             
     2  1  1.50       -95.5546   6.0000                                                             
     3  0  0.50       -10.8127   2.0000                                                             
     3  1  0.50        -4.0811   2.0000                                                             
     3  2  1.50        -4.0817   0.0000                                                             
   Description                                                                                      
     l       E           TYP  RCUT    TYP  RCUT                                                     
     0    -10.8127223     23  1.900                                                                 
     0     -7.6451159     23  1.900                                                                 
     1     -4.0811372     23  1.900                                                                 
     1      2.4879257     23  1.900                                                                 
     2     -4.0817478      7  1.900                                                                 
  local pseudopotential read in
  partial core-charges read in
  partial kinetic energy density read in
  atomic valenz-charges read in
  non local Contribution for L=            0  read in
    real space projection operators read in
  non local Contribution for L=            0  read in
    real space projection operators read in
  non local Contribution for L=            1  read in
    real space projection operators read in
  non local Contribution for L=            1  read in
    real space projection operators read in
    PAW grid and wavefunctions read in
 
   number of l-projection  operators is LMAX  =            4
   number of lm-projection operators is LMMAX =            8
 
 POTCAR:    PAW_PBE Ru_pv 28Jan2005               
   SHA256 =  539bee49bb4e63d8933d8244c4f66bec34c4e5cbe2759ec5d366ad1017752494 Ru_pv/POTCAR          
   COPYR  = (c) Copyright 28Jan2005 Georg Kresse                                                    
   COPYR  = This file is part of the software VASP. Any use, copying, and all other rights are regul
   COPYR  = If you do not have a valid VASP license, you may not use, copy or distribute this file. 
   VRHFIN =Ru: 4p5s4d                                                                               
   LEXCH  = PE                                                                                      
   EATOM  =  1873.4746 eV,  137.6965 Ry                                                             
                                                                                                    
   TITEL  = PAW_PBE Ru_pv 28Jan2005                                                                 
   LULTRA =        F    use ultrasoft PP ?                                                          
   IUNSCR =        1    unscreen: 0-lin 1-nonlin 2-no                                               
   RPACOR =    2.170    partial core radius                                                         
   POMASS =  101.070; ZVAL   =   14.000    mass and valenz                                          
   RCORE  =    2.500    outmost cutoff radius                                                       
   RWIGS  =    2.650; RWIGS  =    1.402    wigner-seitz radius (au A)                               
   ENMAX  =  240.049; ENMIN  =  180.037 eV                                                          
   ICORE  =        3    local potential                                                             
   LCOR   =        T    correct aug charges                                                         
   LPAW   =        T    paw PP                                                                      
   EAUG   =  430.792                                                                                
   DEXC   =    0.000                                                                                
   RMAX   =    2.546    core radius for proj-oper                                                   
   RAUG   =    1.300    factor for augmentation sphere                                              
   RDEP   =    2.520    radius for radial grids                                                     
   RDEPT  =    2.044    core radius for aug-charge                                                  
                                                                                                    
   Atomic configuration                                                                             
   11 entries                                                                                       
     n  l   j            E        occ.                                                              
     1  0  0.50    -21933.2692   2.0000                                                             
     2  0  0.50     -3153.4096   2.0000                                                             
     2  1  1.50     -2823.9548   6.0000                                                             
     3  0  0.50      -555.3322   2.0000                                                             
     3  1  1.50      -447.1024   6.0000                                                             
     3  2  2.50      -273.0570  10.0000                                                             
     4  0  0.50       -76.3589   2.0000                                                             
     4  1  1.50       -46.4050   6.0000                                                             
     4  2  2.50        -5.2029   7.0000                                                             
     5  0  0.50        -4.2392   1.0000                                                             
     4  3  2.50        -1.3606   0.0000                                                             
   Description                                                                                      
     l       E           TYP  RCUT    TYP  RCUT                                                     
     1    -46.4050190     23  2.100                                                                 
     1      4.0817478     23  2.100                                                                 
     2     -5.2028758     23  2.500                                                                 
     2     -6.5634584     23  2.500                                                                 
     0     -4.2392192     23  2.500                                                                 
     0      7.0918828     23  2.500                                                                 
     3     -5.4423304     23  2.500                                                                 
  local pseudopotential read in
  partial core-charges read in
  partial kinetic energy density read in
  atomic valenz-charges read in
  non local Contribution for L=            1  read in
    real space projection operators read in
  non local Contribution for L=            1  read in
    real space projection operators read in
  non local Contribution for L=            2  read in
    real space projection operators read in
  non local Contribution for L=            2  read in
    real space projection operators read in
  non local Contribution for L=            0  read in
    real space projection operators read in
  non local Contribution for L=            0  read in
    real space projection operators read in
    PAW grid and wavefunctions read in
 
   number of l-projection  operators is LMAX  =            6
   number of lm-projection operators is LMMAX =           18
 
 -----------------------------------------------------------------------------
|                                                                             |
|               ----> ADVICE to this user running VASP <----                  |
|                                                                             |
|     You have a (more or less) 'small supercell' and for smaller cells       |
|     it is recommended to use the reciprocal-space projection scheme!        |
|     The real-space optimization is not efficient for small cells and it     |
|     is also less accurate ...                                               |
|     Therefore, set LREAL=.FALSE. in the INCAR file.                         |
|                                                                             |
 -----------------------------------------------------------------------------

 Optimization of the real space projectors (new method)

 maximal supplied QI-value         = 13.42
 optimisation between [QCUT,QGAM] = [ 11.67, 23.35] = [ 38.16,152.62] Ry 
 Optimized for a Real-space Cutoff    1.63 Angstroem

   l    n(q)    QCUT    max X(q) W(low)/X(q) W(high)/X(q)  e(spline) 
   0     11    11.673    10.400    0.14E-04    0.18E-05    0.24E-07
   0     11    11.673    10.768    0.21E-04    0.32E-05    0.49E-07
   1     11    11.673     4.094    0.40E-05    0.13E-04    0.93E-07
   1     11    11.673     4.009    0.11E-04    0.46E-04    0.33E-06
   2     10    11.673    29.030    0.79E-04    0.60E-04    0.70E-06
   2     10    11.673    19.941    0.80E-04    0.60E-04    0.71E-06
   3     10    11.673    88.889    0.23E-03    0.29E-03    0.30E-06
   3     10    11.673    76.102    0.23E-03    0.30E-03    0.30E-06
 Optimization of the real space projectors (new method)

 maximal supplied QI-value         = 19.84
 optimisation between [QCUT,QGAM] = [ 11.51, 23.22] = [ 37.09,150.92] Ry 
 Optimized for a Real-space Cutoff    1.21 Angstroem

   l    n(q)    QCUT    max X(q) W(low)/X(q) W(high)/X(q)  e(spline) 
   0      8    11.508   159.560    0.71E-04    0.15E-03    0.51E-07
   0      8    11.508   115.863    0.70E-04    0.15E-03    0.51E-07
   1      8    11.508    88.339    0.16E-03    0.38E-04    0.82E-07
   1      8    11.508    48.592    0.15E-03    0.36E-04    0.79E-07
 Optimization of the real space projectors (new method)

 maximal supplied QI-value         = 15.12
 optimisation between [QCUT,QGAM] = [ 11.64, 23.28] = [ 37.95,151.78] Ry 
 Optimized for a Real-space Cutoff    1.49 Angstroem

   l    n(q)    QCUT    max X(q) W(low)/X(q) W(high)/X(q)  e(spline) 
   1     10    11.641     3.180    0.30E-04    0.36E-05    0.54E-07
   1     10    11.641     5.351    0.12E-03    0.51E-04    0.30E-06
   2      9    11.641    66.565    0.22E-03    0.78E-04    0.20E-06
   2      9    11.641    63.466    0.22E-03    0.79E-04    0.20E-06
   0     10    11.641    85.644    0.61E-04    0.23E-04    0.12E-06
   0     10    11.641    44.119    0.56E-04    0.21E-04    0.11E-06
  PAW_PBE Eu 23Dec2003                  :
 energy of atom  1       EATOM=-2619.8085
 kinetic energy error for atom=    0.0015 (will be added to EATOM!!)
  PAW_PBE Si 05Jan2001                  :
 energy of atom  2       EATOM= -103.0669
 kinetic energy error for atom=    0.0005 (will be added to EATOM!!)
  PAW_PBE Ru_pv 28Jan2005               :
 energy of atom  3       EATOM=-1873.4746
 kinetic energy error for atom=    0.0068 (will be added to EATOM!!)
 
 
 POSCAR: Eu1 Si2 Ru2
  positions in direct lattice
  No initial velocities read in
 exchange correlation table for  LEXCH =        8
   RHO(1)=    0.500       N(1)  =     2000
   RHO(2)=  100.500       N(2)  =     4000

 VTST: version 4.2, (08/11/21)

 CHAIN: initializing optimizer
 
 OPT: Using VASP Dynamics algorithm
 CHAIN: Read ICHAIN             0
 
 POSCAR: Eu1 Si2 Ru2
  positions in direct lattice
  No initial velocities read in
 


--------------------------------------------------------------------------------------------------------


 ion  position               nearest neighbor table
   1  0.000  0.000  0.000-   5 3.26   4 3.26   4 3.26   5 3.26   4 3.26   5 3.26   5 3.26   4 3.26
                             3 3.30   3 3.30   2 3.30   2 3.30   3 3.30   2 3.30   3 3.30   2 3.30
   2  0.361  0.361  0.000-   4 2.39   5 2.39   4 2.39   5 2.39   3 2.75   1 3.30   1 3.30   1 3.30
                             1 3.30
   3  0.639  0.639  0.000-   5 2.39   5 2.39   4 2.39   4 2.39   2 2.75   1 3.30   1 3.30   1 3.30
                             1 3.30
   4  0.250  0.750  0.500-   2 2.39   3 2.39   2 2.39   3 2.39   5 3.00   5 3.00   5 3.00   5 3.00
                             1 3.26   1 3.26   1 3.26   1 3.26
   5  0.750  0.250  0.500-   3 2.39   2 2.39   2 2.39   3 2.39   4 3.00   4 3.00   4 3.00   4 3.00
                             1 3.26   1 3.26   1 3.26   1 3.26
 
  LATTYP: Found a body centered tetragonal cell.
 ALAT       =     4.2387240000
 C/A-ratio  =     2.3320947530
  
  Lattice vectors:
  
 A1 = (  -2.1193620000,   2.1193620000,   4.9425530000)
 A2 = (   2.1193620000,  -2.1193620000,   4.9425530000)
 A3 = (   2.1193620000,   2.1193620000,  -4.9425530000)


Analysis of symmetry for initial positions (statically):
=====================================================================
 Subroutine PRICEL returns:
 Original cell was already a primitive cell.
 

 Routine SETGRP: Setting up the symmetry group for a 
 body centered tetragonal supercell.


 Subroutine GETGRP returns: Found 16 space group operations
 (whereof 16 operations were pure point group operations)
 out of a pool of 16 trial point group operations.


The static configuration has the point symmetry D_4h.


Analysis of symmetry for dynamics (positions and initial velocities):
=====================================================================
 Subroutine PRICEL returns:
 Original cell was already a primitive cell.
 

 Routine SETGRP: Setting up the symmetry group for a 
 body centered tetragonal supercell.


 Subroutine GETGRP returns: Found 16 space group operations
 (whereof 16 operations were pure point group operations)
 out of a pool of 16 trial point group operations.


The dynamic configuration has the point symmetry D_4h.


Analysis of structural, dynamic, and magnetic symmetry:
=====================================================================
 Subroutine PRICEL returns:
 Original cell was already a primitive cell.
 

 Routine SETGRP: Setting up the symmetry group for a 
 body centered tetragonal supercell.


 Subroutine GETGRP returns: Found 16 space group operations
 (whereof 16 operations were pure point group operations)
 out of a pool of 16 trial point group operations.


The overall configuration has the point symmetry D_4h.


 Subroutine INISYM returns: Found 16 space group operations
 (whereof 16 operations are pure point group operations),
 and found     1 'primitive' translations


----------------------------------------------------------------------------------------

                                     Primitive cell                                     

  volume of cell :      88.8018

  direct lattice vectors                    reciprocal lattice vectors
    -2.119362000  2.119362000  4.942553000    -0.000000000  0.235920055  0.101162294
     2.119362000 -2.119362000  4.942553000     0.235920055 -0.000000000  0.101162294
     2.119362000  2.119362000 -4.942553000     0.235920055  0.235920055 -0.000000000

  length of vectors
     5.780330504  5.780330504  5.780330504     0.256694531  0.256694531  0.333641342

  position of ions in fractional coordinates (direct lattice)
     0.000000000  0.000000000  0.000000000
     0.360866000  0.360866000  1.000000000
     0.639134000  0.639134000  1.000000000
     0.250000000  0.750000000  0.500000000
     0.750000000  0.250000000  0.500000000

  ion indices of the primitive-cell ions
   primitive index   ion index
                 1           1
                 2           2
                 3           3
                 4           4
                 5           5

----------------------------------------------------------------------------------------

 
 
 KPOINTS: Kpoints from vasprun.xml                

Automatic generation of k-mesh.
 Grid dimensions read from file:
 generate k-points for:    6    6    6

 Generating k-lattice:

  Cartesian coordinates                     Fractional coordinates (reciprocal lattice)
    -0.000000000  0.039320009  0.016860382     0.166666667  0.000000000 -0.000000000
     0.039320009 -0.000000000  0.016860382     0.000000000  0.166666667 -0.000000000
     0.039320009  0.039320009 -0.000000000    -0.000000000 -0.000000000  0.166666667

  Length of vectors
     0.042782422  0.042782422  0.055606890

  Shift w.r.t. Gamma in fractional coordinates (k-lattice)
     0.500000000  0.500000000  0.500000000

 TETIRR: Found    278 inequivalent tetrahedra from     1296
 
 Subroutine IBZKPT returns following result:
 ===========================================
 
 Found     28 irreducible k-points:
 
 Following reciprocal coordinates:
            Coordinates               Weight
  0.083333  0.083333  0.083333      8.000000
  0.250000  0.083333  0.083333     16.000000
  0.416667  0.083333  0.083333      8.000000
 -0.083333  0.083333  0.083333      4.000000
  0.250000  0.250000  0.083333      8.000000
  0.416667  0.250000  0.083333     16.000000
 -0.416667  0.250000  0.083333      8.000000
 -0.250000  0.250000  0.083333      8.000000
 -0.083333  0.250000  0.083333      8.000000
  0.416667  0.416667  0.083333      4.000000
 -0.416667  0.416667  0.083333      8.000000
 -0.250000  0.416667  0.083333     16.000000
 -0.083333  0.416667  0.083333      8.000000
 -0.416667 -0.416667  0.083333      8.000000
 -0.250000 -0.416667  0.083333     16.000000
 -0.083333 -0.416667  0.083333      8.000000
 -0.250000 -0.250000  0.083333      8.000000
 -0.083333 -0.250000  0.083333      8.000000
 -0.083333 -0.083333  0.083333      2.000000
  0.250000  0.250000  0.250000      2.000000
 -0.250000  0.250000  0.250000      4.000000
 -0.416667  0.416667  0.250000      8.000000
 -0.250000  0.416667  0.250000      8.000000
 -0.416667 -0.416667  0.250000      8.000000
 -0.250000 -0.416667  0.250000      8.000000
 -0.250000 -0.250000  0.250000      2.000000
 -0.416667  0.416667  0.416667      4.000000
 -0.416667 -0.416667  0.416667      2.000000
 
 Following cartesian coordinates:
            Coordinates               Weight
  0.039320  0.039320  0.016860      8.000000
  0.039320  0.078640  0.033721     16.000000
  0.039320  0.117960  0.050581      8.000000
  0.039320  0.000000  0.000000      4.000000
  0.078640  0.078640  0.050581      8.000000
  0.078640  0.117960  0.067442     16.000000
  0.078640 -0.078640 -0.016860      8.000000
  0.078640 -0.039320  0.000000      8.000000
  0.078640  0.000000  0.016860      8.000000
  0.117960  0.117960  0.084302      4.000000
  0.117960 -0.078640  0.000000      8.000000
  0.117960 -0.039320  0.016860     16.000000
  0.117960  0.000000  0.033721      8.000000
 -0.078640 -0.078640 -0.084302      8.000000
 -0.078640 -0.039320 -0.067442     16.000000
 -0.078640  0.000000 -0.050581      8.000000
 -0.039320 -0.039320 -0.050581      8.000000
 -0.039320  0.000000 -0.033721      8.000000
  0.000000  0.000000 -0.016860      2.000000
  0.117960  0.117960  0.050581      2.000000
  0.117960  0.000000  0.000000      4.000000
  0.157280 -0.039320  0.000000      8.000000
  0.157280  0.000000  0.016860      8.000000
 -0.039320 -0.039320 -0.084302      8.000000
 -0.039320  0.000000 -0.067442      8.000000
  0.000000  0.000000 -0.050581      2.000000
  0.196600  0.000000  0.000000      4.000000
  0.000000  0.000000 -0.084302      2.000000
 


--------------------------------------------------------------------------------------------------------




 Dimension of arrays:
   k-points           NKPTS =     28   k-points in BZ     NKDIM =     28   number of bands    NBANDS=     36
   number of dos      NEDOS =    301   number of ions     NIONS =      5
   non local maximal  LDIM  =      8   non local SUM 2l+1 LMDIM =     32
   total plane-waves  NPLWV = 110592
   max r-space proj   IRMAX =  22526   max aug-charges    IRDMAX= 569702
   dimension x,y,z NGX =    48 NGY =   48 NGZ =   48
   dimension x,y,z NGXF=    96 NGYF=   96 NGZF=   96
   support grid    NGXF=   192 NGYF=  192 NGZF=  192
   ions per type =               1   2   2
   NGX,Y,Z   is equivalent  to a cutoff of  13.81, 13.81, 13.81 a.u.
   NGXF,Y,Z  is equivalent  to a cutoff of  27.61, 27.61, 27.61 a.u.

 SYSTEM =  unknown system                          
 POSCAR =  Eu1 Si2 Ru2                             

 Startparameter for this run:
   NWRITE =      2    write-flag & timer
   PREC   = accura    normal or accurate (medium, high low for compatibility)
   ISTART =      0    job   : 0-new  1-cont  2-samecut
   ICHARG =      2    charge: 1-file 2-atom 10-const
   ISPIN  =      2    spin polarized calculation?
   LNONCOLLINEAR =      F non collinear calculations
   LSORBIT =      F    spin-orbit coupling
   INIWAV =      1    electr: 0-lowe 1-rand  2-diag
   LASPH  =      T    aspherical Exc in radial PAW
 Electronic Relaxation 1
   ENCUT  =  520.0 eV  38.22 Ry    6.18 a.u.  10.75 10.75 10.75*2*pi/ulx,y,z
   ENINI  =  520.0     initial cutoff
   ENAUG  =  549.6 eV  augmentation charge cutoff
   NELM   =   1000;   NELMIN=  2; NELMDL= -5     # of ELM steps 
   EDIFF  = 0.1E-03   stopping-criterion for ELM
   LREAL  =      T    real-space projection
   NLSPLINE    = F    spline interpolate recip. space projectors
   LCOMPAT=      F    compatible to vasp.4.4
   GGA_COMPAT  = T    GGA compatible to vasp.4.4-vasp.4.6
   LMAXPAW     = -100 max onsite density
   LMAXMIX     =    2 max onsite mixed and CHGCAR
   VOSKOWN=      0    Vosko Wilk Nusair interpolation
   ROPT   =   -0.00025  -0.00025  -0.00025
 Ionic relaxation
   EDIFFG = 0.1E-02   stopping-criterion for IOM
   NSW    =      0    number of steps for IOM
   NBLOCK =      1;   KBLOCK =      1    inner block; outer block 
   IBRION =     -1    ionic relax: 0-MD 1-quasi-New 2-CG
   NFREE  =      0    steps in history (QN), initial steepest desc. (CG)
   ISIF   =      3    stress and relaxation
   IWAVPR =     10    prediction:  0-non 1-charg 2-wave 3-comb
   ISYM   =      2    0-nonsym 1-usesym 2-fastsym
   LCORR  =      T    Harris-Foulkes like correction to forces

   POTIM  = 0.5000    time-step for ionic-motion
   TEIN   =    0.0    initial temperature
   TEBEG  =    0.0;   TEEND  =   0.0 temperature during run
   SMASS  =  -3.00    Nose mass-parameter (am)
   estimated Nose-frequenzy (Omega)   =  0.10E-29 period in steps = 0.13E+47 mass=  -0.764E-27a.u.
   SCALEE = 1.0000    scale energy and forces
   NPACO  =    256;   APACO  = 10.0  distance and # of slots for P.C.
   PSTRESS=    0.0 pullay stress

  Mass of Ions in am
   POMASS = 151.97 28.09101.07
  Ionic Valenz
   ZVAL   =  17.00  4.00 14.00
  Atomic Wigner-Seitz radii
   RWIGS  =  -1.00 -1.00 -1.00
  virtual crystal weights 
   VCA    =   1.00  1.00  1.00
   NELECT =      53.0000    total number of electrons
   NUPDOWN=      -1.0000    fix difference up-down

 DOS related values:
   EMIN   =  10.00;   EMAX   =-10.00  energy-range for DOS
   EFERMI =   0.00
   ISMEAR =    -5;   SIGMA  =   0.05  broadening in eV -4-tet -1-fermi 0-gaus

 Electronic relaxation 2 (details)
   IALGO  =     68    algorithm
   LDIAG  =      T    sub-space diagonalisation (order eigenvalues)
   LSUBROT=      F    optimize rotation matrix (better conditioning)
   TURBO    =      0    0=normal 1=particle mesh
   IRESTART =      0    0=no restart 2=restart with 2 vectors
   NREBOOT  =      0    no. of reboots
   NMIN     =      0    reboot dimension
   EREF     =   0.00    reference energy to select bands
   IMIX   =      4    mixing-type and parameters
     AMIX     =   0.40;   BMIX     =  1.00
     AMIX_MAG =   1.60;   BMIX_MAG =  1.00
     AMIN     =   0.10
     WC   =   100.;   INIMIX=   1;  MIXPRE=   1;  MAXMIX= -45

 Intra band minimization:
   WEIMIN = 0.0000     energy-eigenvalue tresh-hold
   EBREAK =  0.69E-06  absolut break condition
   DEPER  =   0.30     relativ break condition  

   TIME   =   0.40     timestep for ELM

  volume/ion in A,a.u.               =      17.76       119.85
  Fermi-wavevector in a.u.,A,eV,Ry     =   1.378350  2.604704 25.849020  1.899849
  Thomas-Fermi vector in A             =   2.503420
 
 Write flags
   LWAVE        =      F    write WAVECAR
   LDOWNSAMPLE  =      F    k-point downsampling of WAVECAR
   LCHARG       =      T    write CHGCAR
   LVTOT        =      F    write LOCPOT, total local potential
   LVHAR        =      T    write LOCPOT, Hartree potential only
   LELF         =      F    write electronic localiz. function (ELF)
   LORBIT       =     11    0 simple, 1 ext, 2 COOP (PROOUT), +10 PAW based schemes


 Dipole corrections
   LMONO  =      F    monopole corrections only (constant potential shift)
   LDIPOL =      F    correct potential (dipole corrections)
   IDIPOL =      0    1-x, 2-y, 3-z, 4-all directions 
   EPSILON=  1.0000000 bulk dielectric constant

 Exchange correlation treatment:
   GGA     =    --    GGA type
   LEXCH   =     8    internal setting for exchange type
   LIBXC   =     F    Libxc                    
   VOSKOWN =     0    Vosko Wilk Nusair interpolation
   LHFCALC =     F    Hartree Fock is set to
   LHFONE  =     F    Hartree Fock one center treatment
   AEXX    =    0.0000 exact exchange contribution

 Linear response parameters
   LEPSILON=     F    determine dielectric tensor
   LRPA    =     F    only Hartree local field effects (RPA)
   LNABLA  =     F    use nabla operator in PAW spheres
   LVEL    =     F    velocity operator in full k-point grid
   CSHIFT  =0.1000    complex shift for real part using Kramers Kronig
   OMEGAMAX=  -1.0    maximum frequency
   DEG_THRESHOLD= 0.2000000E-02 threshold for treating states as degnerate
   RTIME   =   -0.100 relaxation time in fs
  (WPLASMAI=    0.000 imaginary part of plasma frequency in eV, 0.658/RTIME)
   DFIELD  = 0.0000000 0.0000000 0.0000000 field for delta impulse in time
 
  Optional k-point grid parameters
   LKPOINTS_OPT  =     F    use optional k-point grid
   KPOINTS_OPT_MODE=     1    mode for optional k-point grid
 
 Orbital magnetization related:
   ORBITALMAG=     F  switch on orbital magnetization
   LCHIMAG   =     F  perturbation theory with respect to B field
   DQ        =  0.001000  dq finite difference perturbation B field
   LLRAUG    =     F  two centre corrections for induced B field



--------------------------------------------------------------------------------------------------------


 Static calculation
 charge density and potential will be updated during run
 spin polarized calculation
 RMM-DIIS sequential band-by-band and
  variant of blocked Davidson during initial phase
 perform sub-space diagonalisation
    before iterative eigenvector-optimisation
 modified Broyden-mixing scheme, WC =      100.0
 initial mixing is a Kerker type mixing with AMIX =  0.4000 and BMIX =      1.0000
 Hartree-type preconditioning will be used
 using additional bands             9
 real space projection scheme for non local part
 use partial core corrections
 calculate Harris-corrections to forces 
   (improved forces if not selfconsistent)
 use gradient corrections 
 use of overlap-Matrix (Vanderbilt PP)
 Fermi weights with tetrahedron method with Bloechl corrections


--------------------------------------------------------------------------------------------------------


  energy-cutoff  :      520.00
  volume of cell :       88.80
      direct lattice vectors                 reciprocal lattice vectors
    -2.119362000  2.119362000  4.942553000    -0.000000000  0.235920055  0.101162294
     2.119362000 -2.119362000  4.942553000     0.235920055 -0.000000000  0.101162294
     2.119362000  2.119362000 -4.942553000     0.235920055  0.235920055 -0.000000000

  length of vectors
     5.780330504  5.780330504  5.780330504     0.256694531  0.256694531  0.333641342


 
 k-points in units of 2pi/SCALE and weight: Kpoints from vasprun.xml                
   0.03932001  0.03932001  0.01686038       0.037
   0.03932001  0.07864002  0.03372076       0.074
   0.03932001  0.11796003  0.05058115       0.037
   0.03932001  0.00000000  0.00000000       0.019
   0.07864002  0.07864002  0.05058115       0.037
   0.07864002  0.11796003  0.06744153       0.074
   0.07864002 -0.07864002 -0.01686038       0.037
   0.07864002 -0.03932001  0.00000000       0.037
   0.07864002  0.00000000  0.01686038       0.037
   0.11796003  0.11796003  0.08430191       0.019
   0.11796003 -0.07864002  0.00000000       0.037
   0.11796003 -0.03932001  0.01686038       0.074
   0.11796003  0.00000000  0.03372076       0.037
  -0.07864002 -0.07864002 -0.08430191       0.037
  -0.07864002 -0.03932001 -0.06744153       0.074
  -0.07864002  0.00000000 -0.05058115       0.037
  -0.03932001 -0.03932001 -0.05058115       0.037
  -0.03932001  0.00000000 -0.03372076       0.037
   0.00000000  0.00000000 -0.01686038       0.009
   0.11796003  0.11796003  0.05058115       0.009
   0.11796003  0.00000000  0.00000000       0.019
   0.15728004 -0.03932001  0.00000000       0.037
   0.15728004  0.00000000  0.01686038       0.037
  -0.03932001 -0.03932001 -0.08430191       0.037
  -0.03932001  0.00000000 -0.06744153       0.037
   0.00000000  0.00000000 -0.05058115       0.009
   0.19660005  0.00000000  0.00000000       0.019
   0.00000000  0.00000000 -0.08430191       0.009
 
 k-points in reciprocal lattice and weights: Kpoints from vasprun.xml                
   0.08333333  0.08333333  0.08333333       0.037
   0.25000000  0.08333333  0.08333333       0.074
   0.41666667  0.08333333  0.08333333       0.037
  -0.08333333  0.08333333  0.08333333       0.019
   0.25000000  0.25000000  0.08333333       0.037
   0.41666667  0.25000000  0.08333333       0.074
  -0.41666667  0.25000000  0.08333333       0.037
  -0.25000000  0.25000000  0.08333333       0.037
  -0.08333333  0.25000000  0.08333333       0.037
   0.41666667  0.41666667  0.08333333       0.019
  -0.41666667  0.41666667  0.08333333       0.037
  -0.25000000  0.41666667  0.08333333       0.074
  -0.08333333  0.41666667  0.08333333       0.037
  -0.41666667 -0.41666667  0.08333333       0.037
  -0.25000000 -0.41666667  0.08333333       0.074
  -0.08333333 -0.41666667  0.08333333       0.037
  -0.25000000 -0.25000000  0.08333333       0.037
  -0.08333333 -0.25000000  0.08333333       0.037
  -0.08333333 -0.08333333  0.08333333       0.009
   0.25000000  0.25000000  0.25000000       0.009
  -0.25000000  0.25000000  0.25000000       0.019
  -0.41666667  0.41666667  0.25000000       0.037
  -0.25000000  0.41666667  0.25000000       0.037
  -0.41666667 -0.41666667  0.25000000       0.037
  -0.25000000 -0.41666667  0.25000000       0.037
  -0.25000000 -0.25000000  0.25000000       0.009
  -0.41666667  0.41666667  0.41666667       0.019
  -0.41666667 -0.41666667  0.41666667       0.009
 
 position of ions in fractional coordinates (direct lattice) 
   0.00000000  0.00000000  0.00000000
   0.36086600  0.36086600  0.00000000
   0.63913400  0.63913400  0.00000000
   0.25000000  0.75000000  0.50000000
   0.75000000  0.25000000  0.50000000
 
 position of ions in cartesian coordinates  (Angst):
   0.00000000  0.00000000  0.00000000
  -0.00000000  0.00000000  3.56719866
  -0.00000000  0.00000000  6.31790734
   2.11936200  0.00000000  2.47127650
   0.00000000  2.11936200  2.47127650
 


--------------------------------------------------------------------------------------------------------


 k-point   1 :   0.0833 0.0833 0.0833  plane waves:    2384
 k-point   2 :   0.2500 0.0833 0.0833  plane waves:    2389
 k-point   3 :   0.4167 0.0833 0.0833  plane waves:    2392
 k-point   4 :  -0.0833 0.0833 0.0833  plane waves:    2390
 k-point   5 :   0.2500 0.2500 0.0833  plane waves:    2393
 k-point   6 :   0.4167 0.2500 0.0833  plane waves:    2392
 k-point   7 :  -0.4167 0.2500 0.0833  plane waves:    2391
 k-point   8 :  -0.2500 0.2500 0.0833  plane waves:    2391
 k-point   9 :  -0.0833 0.2500 0.0833  plane waves:    2387
 k-point  10 :   0.4167 0.4167 0.0833  plane waves:    2380
 k-point  11 :  -0.4167 0.4167 0.0833  plane waves:    2405
 k-point  12 :  -0.2500 0.4167 0.0833  plane waves:    2398
 k-point  13 :  -0.0833 0.4167 0.0833  plane waves:    2399
 k-point  14 :  -0.4167-0.4167 0.0833  plane waves:    2404
 k-point  15 :  -0.2500-0.4167 0.0833  plane waves:    2390
 k-point  16 :  -0.0833-0.4167 0.0833  plane waves:    2399
 k-point  17 :  -0.2500-0.2500 0.0833  plane waves:    2386
 k-point  18 :  -0.0833-0.2500 0.0833  plane waves:    2381
 k-point  19 :  -0.0833-0.0833 0.0833  plane waves:    2383
 k-point  20 :   0.2500 0.2500 0.2500  plane waves:    2376
 k-point  21 :  -0.2500 0.2500 0.2500  plane waves:    2394
 k-point  22 :  -0.4167 0.4167 0.2500  plane waves:    2396
 k-point  23 :  -0.2500 0.4167 0.2500  plane waves:    2382
 k-point  24 :  -0.4167-0.4167 0.2500  plane waves:    2386
 k-point  25 :  -0.2500-0.4167 0.2500  plane waves:    2377
 k-point  26 :  -0.2500-0.2500 0.2500  plane waves:    2378
 k-point  27 :  -0.4167 0.4167 0.4167  plane waves:    2380
 k-point  28 :  -0.4167-0.4167 0.4167  plane waves:    2382

 maximum and minimum number of plane-waves per node :      2405     2376

 maximum number of plane-waves:      2405
 maximum index in each direction: 
   IXMAX=   11   IYMAX=   11   IZMAX=   10
   IXMIN=  -11   IYMIN=  -11   IZMIN=  -11


 serial   3D FFT for wavefunctions
 parallel 3D FFT for charge:
    minimum data exchange during FFTs selected (reduces bandwidth)


 total amount of memory used by VASP MPI-rank0   126946. kBytes
=======================================================================

   base      :      30000. kBytes
   nonlr-proj:      14622. kBytes
   fftplans  :      33021. kBytes
   grid      :      28717. kBytes
   one-center:        491. kBytes
   wavefun   :      20095. kBytes
 
     INWAV:  cpu time      0.0002: real time      0.0004
 Broyden mixing: mesh for mixing (old mesh)
   NGX = 21   NGY = 21   NGZ = 21
  (NGX  = 96   NGY  = 96   NGZ  = 96)
  gives a total of   9261 points

 initial charge density was supplied:
 charge density of overlapping atoms calculated
 number of electron      53.0000000 magnetization       9.4000000
 keeping initial charge density in first step


--------------------------------------------------------------------------------------------------------


 Maximum index for non-local projection operator         21871
 Maximum index for augmentation-charges        138205 (set IRDMAX)


--------------------------------------------------------------------------------------------------------


 First call to EWALD:  gamma=   0.397
 Maximum number of real-space cells 3x 3x 4
 Maximum number of reciprocal cells 3x 3x 3

    FEWALD:  cpu time      0.0006: real time      0.0006


--------------------------------------- Iteration      1(   1)  ---------------------------------------


    POTLOK:  cpu time      0.1085: real time      0.2014
    SETDIJ:  cpu time      1.5343: real time      1.5349
     EDDAV:  cpu time      3.0460: real time      3.0482
 BZINTS: Fermi energy:   20.221649;   53.000000 electrons
         Band energy: 0.171796E+03;  BLOECHL correction:   -0.699716
       DOS:  cpu time      0.1238: real time      0.1239
    --------------------------------------------
      LOOP:  cpu time      4.8127: real time      4.9083

 eigenvalue-minimisations  :  5720
 total energy-change (2. order) : 0.4582059E+03  (-0.2650880E+04)
 number of electron      53.0000000 magnetization       9.4000000
 augmentation part       53.0000000 magnetization       9.4000000

 Free energy of the ion-electron system (eV)
  ---------------------------------------------------
  alpha Z        PSCENC =       336.43733438
  Ewald energy   TEWEN  =     -5041.65127794
  -Hartree energ DENC   =     -1686.53879960
  -exchange      EXHF   =         0.00000000
  -V(xc)+E(xc)   XCENC  =       184.45318258
  PAW double counting   =      5528.04299316    -5607.20902065
  entropy T*S    EENTRO =         0.00000000
  eigenvalues    EBANDS =       171.79623230
  atomic energy  EATOM  =      6572.87524755
  Solvation  Ediel_sol  =         0.00000000
  ---------------------------------------------------
  free energy    TOTEN  =       458.20589178 eV

  energy without entropy =      458.20589178  energy(sigma->0) =      458.20589178


--------------------------------------------------------------------------------------------------------




--------------------------------------- Iteration      1(   2)  ---------------------------------------


     EDDAV:  cpu time      2.6064: real time      2.6078
 BZINTS: Fermi energy:   11.826392;   53.000000 electrons
         Band energy:-0.281995E+03;  BLOECHL correction:   -0.171842
       DOS:  cpu time      0.0946: real time      0.0946
    --------------------------------------------
      LOOP:  cpu time      2.7009: real time      2.7024

 eigenvalue-minimisations  :  4676
 total energy-change (2. order) :-0.4537917E+03  (-0.4166998E+03)
 number of electron      53.0000000 magnetization       9.4000000
 augmentation part       53.0000000 magnetization       9.4000000

 Free energy of the ion-electron system (eV)
  ---------------------------------------------------
  alpha Z        PSCENC =       336.43733438
  Ewald energy   TEWEN  =     -5041.65127794
  -Hartree energ DENC   =     -1686.53879960
  -exchange      EXHF   =         0.00000000
  -V(xc)+E(xc)   XCENC  =       184.45318258
  PAW double counting   =      5528.04299316    -5607.20902065
  entropy T*S    EENTRO =         0.00000000
  eigenvalues    EBANDS =      -281.99546548
  atomic energy  EATOM  =      6572.87524755
  Solvation  Ediel_sol  =         0.00000000
  ---------------------------------------------------
  free energy    TOTEN  =         4.41419400 eV

  energy without entropy =        4.41419400  energy(sigma->0) =        4.41419400


--------------------------------------------------------------------------------------------------------




--------------------------------------- Iteration      1(   3)  ---------------------------------------


     EDDAV:  cpu time      2.7762: real time      2.7778
 BZINTS: Fermi energy:   10.452041;   53.000000 electrons
         Band energy:-0.332000E+03;  BLOECHL correction:   -0.042928
       DOS:  cpu time      0.0876: real time      0.0876
    --------------------------------------------
      LOOP:  cpu time      2.8638: real time      2.8654

 eigenvalue-minimisations  :  5084
 total energy-change (2. order) :-0.5000441E+02  (-0.4478299E+02)
 number of electron      53.0000000 magnetization       9.4000000
 augmentation part       53.0000000 magnetization       9.4000000

 Free energy of the ion-electron system (eV)
  ---------------------------------------------------
  alpha Z        PSCENC =       336.43733438
  Ewald energy   TEWEN  =     -5041.65127794
  -Hartree energ DENC   =     -1686.53879960
  -exchange      EXHF   =         0.00000000
  -V(xc)+E(xc)   XCENC  =       184.45318258
  PAW double counting   =      5528.04299316    -5607.20902065
  entropy T*S    EENTRO =         0.00000000
  eigenvalues    EBANDS =      -331.99987994
  atomic energy  EATOM  =      6572.87524755
  Solvation  Ediel_sol  =         0.00000000
  ---------------------------------------------------
  free energy    TOTEN  =       -45.59022046 eV

  energy without entropy =      -45.59022046  energy(sigma->0) =      -45.59022046


--------------------------------------------------------------------------------------------------------




--------------------------------------- Iteration      1(   4)  ---------------------------------------


     EDDAV:  cpu time      3.4518: real time      3.4541
 BZINTS: Fermi energy:   10.361079;   53.000000 electrons
         Band energy:-0.335512E+03;  BLOECHL correction:   -0.038081
       DOS:  cpu time      0.0833: real time      0.0833
    --------------------------------------------
      LOOP:  cpu time      3.5351: real time      3.5374

 eigenvalue-minimisations  :  6804
 total energy-change (2. order) :-0.3512504E+01  (-0.3330886E+01)
 number of electron      53.0000000 magnetization       9.4000000
 augmentation part       53.0000000 magnetization       9.4000000

 Free energy of the ion-electron system (eV)
  ---------------------------------------------------
  alpha Z        PSCENC =       336.43733438
  Ewald energy   TEWEN  =     -5041.65127794
  -Hartree energ DENC   =     -1686.53879960
  -exchange      EXHF   =         0.00000000
  -V(xc)+E(xc)   XCENC  =       184.45318258
  PAW double counting   =      5528.04299316    -5607.20902065
  entropy T*S    EENTRO =         0.00000000
  eigenvalues    EBANDS =      -335.51238434
  atomic energy  EATOM  =      6572.87524755
  Solvation  Ediel_sol  =         0.00000000
  ---------------------------------------------------
  free energy    TOTEN  =       -49.10272486 eV

  energy without entropy =      -49.10272486  energy(sigma->0) =      -49.10272486


--------------------------------------------------------------------------------------------------------




--------------------------------------- Iteration      1(   5)  ---------------------------------------


     EDDAV:  cpu time      3.1732: real time      3.1754
 BZINTS: Fermi energy:   10.354213;   53.000000 electrons
         Band energy:-0.335636E+03;  BLOECHL correction:   -0.038656
       DOS:  cpu time      0.0845: real time      0.0845
    CHARGE:  cpu time      0.2027: real time      0.2028
    MIXING:  cpu time      0.0019: real time      0.0019
    --------------------------------------------
      LOOP:  cpu time      3.4623: real time      3.4645

 eigenvalue-minimisations  :  6028
 total energy-change (2. order) :-0.1231495E+00  (-0.1220704E+00)
 number of electron      53.0000001 magnetization       2.2153935
 augmentation part       10.5848337 magnetization       1.1257327

 Broyden mixing:
  rms(total) = 0.52141E+01    rms(broyden)= 0.52141E+01
  rms(prec ) = 0.10786E+02
  weight for this iteration     100.00

 Free energy of the ion-electron system (eV)
  ---------------------------------------------------
  alpha Z        PSCENC =       336.43733438
  Ewald energy   TEWEN  =     -5041.65127794
  -Hartree energ DENC   =     -1686.53879960
  -exchange      EXHF   =         0.00000000
  -V(xc)+E(xc)   XCENC  =       184.45318258
  PAW double counting   =      5528.04299316    -5607.20902065
  entropy T*S    EENTRO =         0.00000000
  eigenvalues    EBANDS =      -335.63553389
  atomic energy  EATOM  =      6572.87524755
  Solvation  Ediel_sol  =         0.00000000
  ---------------------------------------------------
  free energy    TOTEN  =       -49.22587440 eV

  energy without entropy =      -49.22587440  energy(sigma->0) =      -49.22587440


--------------------------------------------------------------------------------------------------------




--------------------------------------- Iteration      1(   6)  ---------------------------------------


    POTLOK:  cpu time      0.0079: real time      0.0089
    SETDIJ:  cpu time      1.5334: real time      1.5342
    EDDIAG:  cpu time      0.1578: real time      0.1578
  RMM-DIIS:  cpu time      1.8987: real time      1.9066
    ORTHCH:  cpu time      0.0636: real time      0.0636
 BZINTS: Fermi energy:    7.988743;   53.000000 electrons
         Band energy:-0.840688E+03;  BLOECHL correction:   -4.725458
       DOS:  cpu time      0.1123: real time      0.1123
    CHARGE:  cpu time      0.1987: real time      0.1988
    MIXING:  cpu time      0.0024: real time      0.0045
    --------------------------------------------
      LOOP:  cpu time      3.9747: real time      3.9867

 eigenvalue-minimisations  :  6630
 total energy-change (2. order) :-0.2518995E+03  (-0.9950752E+01)
 number of electron      53.0000001 magnetization       2.1895815
 augmentation part       17.6480970 magnetization       1.5562426

 Broyden mixing:
  rms(total) = 0.31562E+02    rms(broyden)= 0.31562E+02
  rms(prec ) = 0.36384E+02
  weight for this iteration     100.00

 eigenvalues of (default mixing * dielectric matrix)
  average eigenvalue GAMMA=   0.0588
  0.0588

 Free energy of the ion-electron system (eV)
  ---------------------------------------------------
  alpha Z        PSCENC =       336.43733438
  Ewald energy   TEWEN  =     -5041.65127794
  -Hartree energ DENC   =     -1500.50555303
  -exchange      EXHF   =         0.00000000
  -V(xc)+E(xc)   XCENC  =       174.19945896
  PAW double counting   =      5689.77992692    -5691.57247278
  entropy T*S    EENTRO =         0.00000000
  eigenvalues    EBANDS =      -840.68807692
  atomic energy  EATOM  =      6572.87524755
  Solvation  Ediel_sol  =         0.00000000
  ---------------------------------------------------
  free energy    TOTEN  =      -301.12541285 eV

  energy without entropy =     -301.12541285  energy(sigma->0) =     -301.12541285


--------------------------------------------------------------------------------------------------------




--------------------------------------- Iteration      1(   7)  ---------------------------------------


    POTLOK:  cpu time      0.0091: real time      0.0095
    SETDIJ:  cpu time      1.5262: real time      1.5268
    EDDIAG:  cpu time      0.1580: real time      0.1581
  RMM-DIIS:  cpu time      1.8584: real time      1.8592
    ORTHCH:  cpu time      0.0636: real time      0.0636
 BZINTS: Fermi energy:    7.065557;   53.000000 electrons
         Band energy:-0.677827E+03;  BLOECHL correction:   -0.808643
       DOS:  cpu time      0.0954: real time      0.0954
    CHARGE:  cpu time      0.1999: real time      0.2000
    MIXING:  cpu time      0.0020: real time      0.0020
    --------------------------------------------
      LOOP:  cpu time      3.9126: real time      3.9145

 eigenvalue-minimisations  :  6727
 total energy-change (2. order) : 0.1234887E+03  (-0.9815175E+01)
 number of electron      53.0000001 magnetization       2.7545376
 augmentation part       17.0470861 magnetization       2.1250617

 Broyden mixing:
  rms(total) = 0.15606E+02    rms(broyden)= 0.15606E+02
  rms(prec ) = 0.21840E+02
  weight for this iteration     100.00

 eigenvalues of (default mixing * dielectric matrix)
  average eigenvalue GAMMA=   0.2952
  0.2952  0.2952

 Free energy of the ion-electron system (eV)
  ---------------------------------------------------
  alpha Z        PSCENC =       336.43733438
  Ewald energy   TEWEN  =     -5041.65127794
  -Hartree energ DENC   =     -1511.62294903
  -exchange      EXHF   =         0.00000000
  -V(xc)+E(xc)   XCENC  =       174.87867821
  PAW double counting   =      5866.19983133    -5896.92676306
  entropy T*S    EENTRO =         0.00000000
  eigenvalues    EBANDS =      -677.82684061
  atomic energy  EATOM  =      6572.87524755
  Solvation  Ediel_sol  =         0.00000000
  ---------------------------------------------------
  free energy    TOTEN  =      -177.63673916 eV

  energy without entropy =     -177.63673916  energy(sigma->0) =     -177.63673916


--------------------------------------------------------------------------------------------------------




--------------------------------------- Iteration      1(   8)  ---------------------------------------


    POTLOK:  cpu time      0.0082: real time      0.0091
    SETDIJ:  cpu time      1.5324: real time      1.5334
    EDDIAG:  cpu time      0.1581: real time      0.1581
  RMM-DIIS:  cpu time      1.6057: real time      1.6063
    ORTHCH:  cpu time      0.0634: real time      0.0634
 BZINTS: Fermi energy:    6.065435;   53.000000 electrons
         Band energy:-0.459305E+03;  BLOECHL correction:   -0.180388
       DOS:  cpu time      0.0936: real time      0.0937
    CHARGE:  cpu time      0.1988: real time      0.1989
    MIXING:  cpu time      0.0020: real time      0.0020
    --------------------------------------------
      LOOP:  cpu time      3.6623: real time      3.6650

 eigenvalue-minimisations  :  5855
 total energy-change (2. order) : 0.1339708E+03  (-0.7338015E+01)
 number of electron      53.0000001 magnetization       3.2362389
 augmentation part       16.6563301 magnetization       2.9699925

 Broyden mixing:
  rms(total) = 0.35614E+01    rms(broyden)= 0.35614E+01
  rms(prec ) = 0.61470E+01
  weight for this iteration     100.00

 eigenvalues of (default mixing * dielectric matrix)
  average eigenvalue GAMMA=   0.4263
  0.3956  0.4416  0.4416

 Free energy of the ion-electron system (eV)
  ---------------------------------------------------
  alpha Z        PSCENC =       336.43733438
  Ewald energy   TEWEN  =     -5041.65127794
  -Hartree energ DENC   =     -1561.99959048
  -exchange      EXHF   =         0.00000000
  -V(xc)+E(xc)   XCENC  =       177.08562911
  PAW double counting   =      6112.26985729    -6179.37821146
  entropy T*S    EENTRO =         0.00000000
  eigenvalues    EBANDS =      -459.30494182
  atomic energy  EATOM  =      6572.87524755
  Solvation  Ediel_sol  =         0.00000000
  ---------------------------------------------------
  free energy    TOTEN  =       -43.66595336 eV

  energy without entropy =      -43.66595336  energy(sigma->0) =      -43.66595336


--------------------------------------------------------------------------------------------------------




--------------------------------------- Iteration      1(   9)  ---------------------------------------


    POTLOK:  cpu time      0.0080: real time      0.0092
    SETDIJ:  cpu time      1.5431: real time      1.5440
    EDDIAG:  cpu time      0.1581: real time      0.1581
  RMM-DIIS:  cpu time      1.6169: real time      1.6175
    ORTHCH:  cpu time      0.0633: real time      0.0633
 BZINTS: Fermi energy:    7.854506;   53.000000 electrons
         Band energy:-0.396852E+03;  BLOECHL correction:   -0.257027
       DOS:  cpu time      0.0934: real time      0.0935
    CHARGE:  cpu time      0.1991: real time      0.1992
    MIXING:  cpu time      0.0020: real time      0.0020
    --------------------------------------------
      LOOP:  cpu time      3.6839: real time      3.6869

 eigenvalue-minimisations  :  5894
 total energy-change (2. order) : 0.4118124E+01  (-0.3552513E+01)
 number of electron      53.0000001 magnetization       3.6079394
 augmentation part       14.5333436 magnetization       3.1592958

 Broyden mixing:
  rms(total) = 0.21382E+01    rms(broyden)= 0.21382E+01
  rms(prec ) = 0.23277E+01
  weight for this iteration     100.00

 eigenvalues of (default mixing * dielectric matrix)
  average eigenvalue GAMMA=   0.3277
  0.4423  0.4423  0.3830  0.0431

 Free energy of the ion-electron system (eV)
  ---------------------------------------------------
  alpha Z        PSCENC =       336.43733438
  Ewald energy   TEWEN  =     -5041.65127794
  -Hartree energ DENC   =     -1611.04858547
  -exchange      EXHF   =         0.00000000
  -V(xc)+E(xc)   XCENC  =       179.55286104
  PAW double counting   =      6243.30774100    -6322.16964158
  entropy T*S    EENTRO =         0.00000000
  eigenvalues    EBANDS =      -396.85150820
  atomic energy  EATOM  =      6572.87524755
  Solvation  Ediel_sol  =         0.00000000
  ---------------------------------------------------
  free energy    TOTEN  =       -39.54782920 eV

  energy without entropy =      -39.54782920  energy(sigma->0) =      -39.54782920


--------------------------------------------------------------------------------------------------------




--------------------------------------- Iteration      1(  10)  ---------------------------------------


    POTLOK:  cpu time      0.0079: real time      0.0091
    SETDIJ:  cpu time      1.5272: real time      1.5278
    EDDIAG:  cpu time      0.1578: real time      0.1578
  RMM-DIIS:  cpu time      1.7400: real time      1.7406
    ORTHCH:  cpu time      0.0635: real time      0.0635
 BZINTS: Fermi energy:    7.783095;   53.000000 electrons
         Band energy:-0.401739E+03;  BLOECHL correction:   -0.252336
       DOS:  cpu time      0.0894: real time      0.0894
    CHARGE:  cpu time      0.1979: real time      0.1979
    MIXING:  cpu time      0.0023: real time      0.0023
    --------------------------------------------
      LOOP:  cpu time      3.7859: real time      3.7884

 eigenvalue-minimisations  :  6361
 total energy-change (2. order) :-0.1036233E+01  (-0.6274018E+00)
 number of electron      53.0000001 magnetization       4.3861623
 augmentation part       14.6944265 magnetization       3.9485633

 Broyden mixing:
  rms(total) = 0.20143E+01    rms(broyden)= 0.20143E+01
  rms(prec ) = 0.21551E+01
  weight for this iteration     100.00

 eigenvalues of (default mixing * dielectric matrix)
  average eigenvalue GAMMA=   0.4948
  0.6072  0.6072  0.4444  0.4444  0.3707

 Free energy of the ion-electron system (eV)
  ---------------------------------------------------
  alpha Z        PSCENC =       336.43733438
  Ewald energy   TEWEN  =     -5041.65127794
  -Hartree energ DENC   =     -1608.42044695
  -exchange      EXHF   =         0.00000000
  -V(xc)+E(xc)   XCENC  =       179.81307379
  PAW double counting   =      6261.57533912    -6339.47403103
  entropy T*S    EENTRO =         0.00000000
  eigenvalues    EBANDS =      -401.73930137
  atomic energy  EATOM  =      6572.87524755
  Solvation  Ediel_sol  =         0.00000000
  ---------------------------------------------------
  free energy    TOTEN  =       -40.58406244 eV

  energy without entropy =      -40.58406244  energy(sigma->0) =      -40.58406244


--------------------------------------------------------------------------------------------------------




--------------------------------------- Iteration      1(  11)  ---------------------------------------


    POTLOK:  cpu time      0.0080: real time      0.0089
    SETDIJ:  cpu time      1.5253: real time      1.5259
    EDDIAG:  cpu time      0.1582: real time      0.1582
  RMM-DIIS:  cpu time      1.7404: real time      1.7411
    ORTHCH:  cpu time      0.0633: real time      0.0633
 BZINTS: Fermi energy:    7.216535;   53.000000 electrons
         Band energy:-0.417309E+03;  BLOECHL correction:   -0.220361
       DOS:  cpu time      0.0954: real time      0.0954
    CHARGE:  cpu time      0.1992: real time      0.1993
    MIXING:  cpu time      0.0023: real time      0.0023
    --------------------------------------------
      LOOP:  cpu time      3.7919: real time      3.7944

 eigenvalue-minimisations  :  6341
 total energy-change (2. order) :-0.9764439E+00  (-0.1014462E+00)
 number of electron      53.0000001 magnetization       5.3340681
 augmentation part       15.7116401 magnetization       5.0179416

 Broyden mixing:
  rms(total) = 0.11852E+01    rms(broyden)= 0.11852E+01
  rms(prec ) = 0.22009E+01
  weight for this iteration     100.00

 eigenvalues of (default mixing * dielectric matrix)
  average eigenvalue GAMMA=   0.5328
  0.6976  0.6976  0.4245  0.4245  0.4762  0.4762

 Free energy of the ion-electron system (eV)
  ---------------------------------------------------
  alpha Z        PSCENC =       336.43733438
  Ewald energy   TEWEN  =     -5041.65127794
  -Hartree energ DENC   =     -1597.46963912
  -exchange      EXHF   =         0.00000000
  -V(xc)+E(xc)   XCENC  =       180.07371494
  PAW double counting   =      6287.67289903    -6362.19018136
  entropy T*S    EENTRO =         0.00000000
  eigenvalues    EBANDS =      -417.30860383
  atomic energy  EATOM  =      6572.87524755
  Solvation  Ediel_sol  =         0.00000000
  ---------------------------------------------------
  free energy    TOTEN  =       -41.56050635 eV

  energy without entropy =      -41.56050635  energy(sigma->0) =      -41.56050635


--------------------------------------------------------------------------------------------------------




--------------------------------------- Iteration      1(  12)  ---------------------------------------


    POTLOK:  cpu time      0.0082: real time      0.0092
    SETDIJ:  cpu time      1.5252: real time      1.5260
    EDDIAG:  cpu time      0.1579: real time      0.1580
  RMM-DIIS:  cpu time      1.7364: real time      1.7370
    ORTHCH:  cpu time      0.0634: real time      0.0635
 BZINTS: Fermi energy:    7.802940;   53.000000 electrons
         Band energy:-0.399805E+03;  BLOECHL correction:   -0.217993
       DOS:  cpu time      0.0895: real time      0.0895
    CHARGE:  cpu time      0.1982: real time      0.1984
    MIXING:  cpu time      0.0022: real time      0.0022
    --------------------------------------------
      LOOP:  cpu time      3.7811: real time      3.7837

 eigenvalue-minimisations  :  6381
 total energy-change (2. order) : 0.2585192E-01  (-0.1644339E+00)
 number of electron      53.0000001 magnetization       5.6622241
 augmentation part       14.6844695 magnetization       5.3679324

 Broyden mixing:
  rms(total) = 0.11407E+01    rms(broyden)= 0.11407E+01
  rms(prec ) = 0.13547E+01
  weight for this iteration     100.00

 eigenvalues of (default mixing * dielectric matrix)
  average eigenvalue GAMMA=   0.5717
  1.1830  0.4187  0.4187  0.5629  0.5629  0.4278  0.4278

 Free energy of the ion-electron system (eV)
  ---------------------------------------------------
  alpha Z        PSCENC =       336.43733438
  Ewald energy   TEWEN  =     -5041.65127794
  -Hartree energ DENC   =     -1614.17629232
  -exchange      EXHF   =         0.00000000
  -V(xc)+E(xc)   XCENC  =       182.02088062
  PAW double counting   =      6413.95851933    -6491.19378713
  entropy T*S    EENTRO =         0.00000000
  eigenvalues    EBANDS =      -399.80527894
  atomic energy  EATOM  =      6572.87524755
  Solvation  Ediel_sol  =         0.00000000
  ---------------------------------------------------
  free energy    TOTEN  =       -41.53465443 eV

  energy without entropy =      -41.53465443  energy(sigma->0) =      -41.53465443


--------------------------------------------------------------------------------------------------------




--------------------------------------- Iteration      1(  13)  ---------------------------------------


    POTLOK:  cpu time      0.0080: real time      0.0090
    SETDIJ:  cpu time      1.5256: real time      1.5262
    EDDIAG:  cpu time      0.1577: real time      0.1579
  RMM-DIIS:  cpu time      1.8142: real time      1.8148
    ORTHCH:  cpu time      0.0634: real time      0.0635
 BZINTS: Fermi energy:    7.941949;   53.000000 electrons
         Band energy:-0.398194E+03;  BLOECHL correction:   -0.244307
       DOS:  cpu time      0.0891: real time      0.0891
    CHARGE:  cpu time      0.1975: real time      0.1976
    MIXING:  cpu time      0.0024: real time      0.0024
    --------------------------------------------
      LOOP:  cpu time      3.8579: real time      3.8604

 eigenvalue-minimisations  :  6694
 total energy-change (2. order) :-0.5529412E-01  (-0.6121147E-01)
 number of electron      53.0000001 magnetization       5.7379006
 augmentation part       14.4669088 magnetization       5.3497031

 Broyden mixing:
  rms(total) = 0.66544E+00    rms(broyden)= 0.66543E+00
  rms(prec ) = 0.73762E+00
  weight for this iteration     100.00

 eigenvalues of (default mixing * dielectric matrix)
  average eigenvalue GAMMA=   0.6768
  1.7379  0.7057  0.7057  0.4225  0.4225  0.4989  0.4608  0.4608

 Free energy of the ion-electron system (eV)
  ---------------------------------------------------
  alpha Z        PSCENC =       336.43733438
  Ewald energy   TEWEN  =     -5041.65127794
  -Hartree energ DENC   =     -1614.46039966
  -exchange      EXHF   =         0.00000000
  -V(xc)+E(xc)   XCENC  =       182.85392914
  PAW double counting   =      6484.37812913    -6563.82867161
  entropy T*S    EENTRO =         0.00000000
  eigenvalues    EBANDS =      -398.19423955
  atomic energy  EATOM  =      6572.87524755
  Solvation  Ediel_sol  =         0.00000000
  ---------------------------------------------------
  free energy    TOTEN  =       -41.58994855 eV

  energy without entropy =      -41.58994855  energy(sigma->0) =      -41.58994855


--------------------------------------------------------------------------------------------------------




--------------------------------------- Iteration      1(  14)  ---------------------------------------


    POTLOK:  cpu time      0.0083: real time      0.0091
    SETDIJ:  cpu time      1.5489: real time      1.5499
    EDDIAG:  cpu time      0.1581: real time      0.1582
  RMM-DIIS:  cpu time      1.8102: real time      1.8118
    ORTHCH:  cpu time      0.0636: real time      0.0636
 BZINTS: Fermi energy:    7.894044;   53.000000 electrons
         Band energy:-0.400918E+03;  BLOECHL correction:   -0.253561
       DOS:  cpu time      0.0841: real time      0.0842
    CHARGE:  cpu time      0.1998: real time      0.2001
    MIXING:  cpu time      0.0023: real time      0.0023
    --------------------------------------------
      LOOP:  cpu time      3.8753: real time      3.8791

 eigenvalue-minimisations  :  6647
 total energy-change (2. order) :-0.1273563E-01  (-0.2817730E-01)
 number of electron      53.0000001 magnetization       5.7696261
 augmentation part       14.5555146 magnetization       5.3002336

 Broyden mixing:
  rms(total) = 0.13466E+00    rms(broyden)= 0.13465E+00
  rms(prec ) = 0.25935E+00
  weight for this iteration     100.00

 eigenvalues of (default mixing * dielectric matrix)
  average eigenvalue GAMMA=   0.6934
  1.5851  0.8326  0.8326  0.4231  0.4231  0.4630  0.4630  0.6093  0.6093

 Free energy of the ion-electron system (eV)
  ---------------------------------------------------
  alpha Z        PSCENC =       336.43733438
  Ewald energy   TEWEN  =     -5041.65127794
  -Hartree energ DENC   =     -1610.57621557
  -exchange      EXHF   =         0.00000000
  -V(xc)+E(xc)   XCENC  =       182.67251812
  PAW double counting   =      6509.02752271    -6589.46933391
  entropy T*S    EENTRO =         0.00000000
  eigenvalues    EBANDS =      -400.91847953
  atomic energy  EATOM  =      6572.87524755
  Solvation  Ediel_sol  =         0.00000000
  ---------------------------------------------------
  free energy    TOTEN  =       -41.60268418 eV

  energy without entropy =      -41.60268418  energy(sigma->0) =      -41.60268418


--------------------------------------------------------------------------------------------------------




--------------------------------------- Iteration      1(  15)  ---------------------------------------


    POTLOK:  cpu time      0.0081: real time      0.0092
    SETDIJ:  cpu time      1.5378: real time      1.5387
    EDDIAG:  cpu time      0.1581: real time      0.1582
  RMM-DIIS:  cpu time      1.8751: real time      1.8766
    ORTHCH:  cpu time      0.0634: real time      0.0635
 BZINTS: Fermi energy:    7.870999;   53.000000 electrons
         Band energy:-0.403125E+03;  BLOECHL correction:   -0.250314
       DOS:  cpu time      0.0837: real time      0.0839
    CHARGE:  cpu time      0.1990: real time      0.1994
    MIXING:  cpu time      0.0025: real time      0.0026
    --------------------------------------------
      LOOP:  cpu time      3.9278: real time      3.9320

 eigenvalue-minimisations  :  6753
 total energy-change (2. order) : 0.2571280E-01  (-0.4200848E-02)
 number of electron      53.0000001 magnetization       5.8750463
 augmentation part       14.5956477 magnetization       5.3894149

 Broyden mixing:
  rms(total) = 0.15553E+00    rms(broyden)= 0.15553E+00
  rms(prec ) = 0.24031E+00
  weight for this iteration     100.00

 eigenvalues of (default mixing * dielectric matrix)
  average eigenvalue GAMMA=   0.7824
  1.6780  1.6780  0.7903  0.7903  0.4229  0.4229  0.4607  0.4607  0.5601  0.5601

 Free energy of the ion-electron system (eV)
  ---------------------------------------------------
  alpha Z        PSCENC =       336.43733438
  Ewald energy   TEWEN  =     -5041.65127794
  -Hartree energ DENC   =     -1608.67956871
  -exchange      EXHF   =         0.00000000
  -V(xc)+E(xc)   XCENC  =       182.46241498
  PAW double counting   =      6514.69301789    -6594.58913679
  entropy T*S    EENTRO =         0.00000000
  eigenvalues    EBANDS =      -403.12500274
  atomic energy  EATOM  =      6572.87524755
  Solvation  Ediel_sol  =         0.00000000
  ---------------------------------------------------
  free energy    TOTEN  =       -41.57697138 eV

  energy without entropy =      -41.57697138  energy(sigma->0) =      -41.57697138


--------------------------------------------------------------------------------------------------------




--------------------------------------- Iteration      1(  16)  ---------------------------------------


    POTLOK:  cpu time      0.0083: real time      0.0090
    SETDIJ:  cpu time      1.5503: real time      1.5515
    EDDIAG:  cpu time      0.1584: real time      0.1585
  RMM-DIIS:  cpu time      1.7310: real time      1.7322
    ORTHCH:  cpu time      0.0633: real time      0.0634
 BZINTS: Fermi energy:    7.831953;   53.000000 electrons
         Band energy:-0.406924E+03;  BLOECHL correction:   -0.241323
       DOS:  cpu time      0.0856: real time      0.0856
    CHARGE:  cpu time      0.1983: real time      0.1984
    MIXING:  cpu time      0.0024: real time      0.0024
    --------------------------------------------
      LOOP:  cpu time      3.7977: real time      3.8010

 eigenvalue-minimisations  :  6343
 total energy-change (2. order) : 0.2711334E-01  (-0.6098111E-02)
 number of electron      53.0000001 magnetization       5.9186611
 augmentation part       14.6433528 magnetization       5.4571922

 Broyden mixing:
  rms(total) = 0.17313E+00    rms(broyden)= 0.17313E+00
  rms(prec ) = 0.17490E+00
  weight for this iteration     100.00

 eigenvalues of (default mixing * dielectric matrix)
  average eigenvalue GAMMA=   0.8171
  1.7917  1.7917  0.9152  0.9152  0.4228  0.4228  0.4634  0.4634  0.6198  0.6198
  0.5626

 Free energy of the ion-electron system (eV)
  ---------------------------------------------------
  alpha Z        PSCENC =       336.43733438
  Ewald energy   TEWEN  =     -5041.65127794
  -Hartree energ DENC   =     -1605.93269488
  -exchange      EXHF   =         0.00000000
  -V(xc)+E(xc)   XCENC  =       182.46149171
  PAW double counting   =      6525.22921515    -6604.04493241
  entropy T*S    EENTRO =         0.00000000
  eigenvalues    EBANDS =      -406.92424161
  atomic energy  EATOM  =      6572.87524755
  Solvation  Ediel_sol  =         0.00000000
  ---------------------------------------------------
  free energy    TOTEN  =       -41.54985804 eV

  energy without entropy =      -41.54985804  energy(sigma->0) =      -41.54985804


--------------------------------------------------------------------------------------------------------




--------------------------------------- Iteration      1(  17)  ---------------------------------------


    POTLOK:  cpu time      0.0085: real time      0.0094
    SETDIJ:  cpu time      1.5299: real time      1.5306
    EDDIAG:  cpu time      0.1577: real time      0.1578
  RMM-DIIS:  cpu time      1.7960: real time      1.7968
    ORTHCH:  cpu time      0.0633: real time      0.0634
 BZINTS: Fermi energy:    7.773367;   53.000000 electrons
         Band energy:-0.409791E+03;  BLOECHL correction:   -0.232690
       DOS:  cpu time      0.0866: real time      0.0866
    CHARGE:  cpu time      0.1978: real time      0.1978
    MIXING:  cpu time      0.0026: real time      0.0026
    --------------------------------------------
      LOOP:  cpu time      3.8423: real time      3.8449

 eigenvalue-minimisations  :  6576
 total energy-change (2. order) :-0.9545126E-02  (-0.2901414E-02)
 number of electron      53.0000001 magnetization       5.8902527
 augmentation part       14.7177569 magnetization       5.4662966

 Broyden mixing:
  rms(total) = 0.21085E+00    rms(broyden)= 0.21085E+00
  rms(prec ) = 0.30400E+00
  weight for this iteration     100.00

 eigenvalues of (default mixing * dielectric matrix)
  average eigenvalue GAMMA=   0.8279
  1.8317  1.8317  1.1763  0.7741  0.7741  0.4228  0.4228  0.4619  0.4619  0.5867
  0.5867  0.6039

 Free energy of the ion-electron system (eV)
  ---------------------------------------------------
  alpha Z        PSCENC =       336.43733438
  Ewald energy   TEWEN  =     -5041.65127794
  -Hartree energ DENC   =     -1603.88732178
  -exchange      EXHF   =         0.00000000
  -V(xc)+E(xc)   XCENC  =       182.49864041
  PAW double counting   =      6531.11602404    -6609.15719232
  entropy T*S    EENTRO =         0.00000000
  eigenvalues    EBANDS =      -409.79085752
  atomic energy  EATOM  =      6572.87524755
  Solvation  Ediel_sol  =         0.00000000
  ---------------------------------------------------
  free energy    TOTEN  =       -41.55940317 eV

  energy without entropy =      -41.55940317  energy(sigma->0) =      -41.55940317


--------------------------------------------------------------------------------------------------------




--------------------------------------- Iteration      1(  18)  ---------------------------------------


    POTLOK:  cpu time      0.0083: real time      0.0088
    SETDIJ:  cpu time      1.5319: real time      1.5325
    EDDIAG:  cpu time      0.1582: real time      0.1583
  RMM-DIIS:  cpu time      1.7828: real time      1.7842
    ORTHCH:  cpu time      0.0635: real time      0.0635
 BZINTS: Fermi energy:    7.776946;   53.000000 electrons
[...]
  352                map_gather                            0.000247                   12   7
  353                m_alltoallv_z                         0.000140                   12   7
  354                map_scatter                           0.000468                   12   7
  355        m_sumb_d                              0.000027                            5   3
  356        forhar                                0.001957                            2   3
  357          m_sumb_d                              0.000010                          2   4
  358        strehar                               0.001252                            1   3
  359          m_sumb_d                              0.000003                          1   4
  360        chggra                                0.000792                            1   3
  361          fft3d_mpi                             0.000458                          3   4
  362            fftbrc_mpi                            0.000358                        3   5
  363              fftbas_plan_mpi                       0.000355                      3   6
  364                map_forward                           0.000188                    4   7
  365                  map_gather                            0.000043                  2   8
  366                  m_alltoallv_z                         0.000027                  2   8
  367                  map_scatter                           0.000089                  2   8
  368                map_backward                          0.000085                    2   7
  369                  map_gather                            0.000020                  1   8
  370                  m_alltoallv_z                         0.000012                  1   8
  371                  map_scatter                           0.000037                  1   8
  372          m_sumb_d                              0.000007                          2   4
  373          pothar                                0.000080                          1   4
  374            m_sumb_d                              0.000010                        1   5
  375        brmix                                 0.004866                            1   3
  376          m_sumb_d                              0.000043                          6   4
  377          brpre                                 0.000016                          2   4
  378          setg0                                 0.000852                          1   4
  379          broyd                                 0.003032                          1   4
  380            m_sumb_d                              0.000317                       42   5
  381            brsav                                 0.000132                       41   5
  382            brget                                 0.000551                      184   5
  383        m_bcast_d                             0.000015                            2   3
  384      potlok                                0.028102                              2   2
  385        fft3d_mpi                             0.018952                           36   3
  386          fftbrc_mpi                            0.016213                         36   4
  387            fftbas_plan_mpi                       0.016192                       36   5
  388              map_forward                           0.004670                     40   6
  389                map_gather                            0.001529                   24   7
  390                m_alltoallv_z                         0.001592                   24   7
  391                map_scatter                           0.001369                   24   7
  392              map_backward                          0.004022                     32   6
  393                map_gather                            0.001235                   16   7
  394                m_alltoallv_z                         0.001413                   16   7
  395                map_scatter                           0.001185                   16   7
  396              dfftw_execute                         0.005762                     30   6
  397        m_sumb_d                              0.000025                            5   3
  398        pothar                                0.001228                            2   3
  399          m_sumb_d                              0.000082                          2   4
  400        m_bcast_d                             0.001827                            4   3
  401      potlok_metagga                        0.000000                              1   2
  402      set_dd_magatom                        0.000004                              1   2
  403      set_dd_paw                            1.416097                              1   2
  404        m_sumb_d                              0.940926                            7   3
  405      augmentation_charge                   0.122378                              1   2
  406        fft3d_mpi                             0.031871                            2   3
  407          fftbrc_mpi                            0.028271                          2   4
  408            fftbas_plan_mpi                       0.028267                        2   5
  409              dfftw_execute                         0.018893                      6   6
  410              map_backward                          0.009102                      4   6
  411                map_gather                            0.002369                    2   7
  412                m_alltoallv_z                         0.004218                    2   7
  413                map_scatter                           0.002508                    2   7
  414      densta                                0.701757                              1   2
 
 Flat profile
 ============
 
             routine name                   CPU           calls
 ---------------------------------------------------------------
 m_sumb_d                               40.939687       23622
 raccmu_                                18.338547       20093
 set_dd_paw                             18.073570          38
 init_acc                               11.291836           1
 total_time                              9.885904           1
 phaser                                  7.724311        2604
 eccp                                    6.705836       83388
 setdij_                                 5.553802          64
 densta                                  4.278078          41
 w1_gemv                                 3.935222      161868
 i2                                      3.658059       14726
 eccp_nl                                 3.475348       63228
 augmentation_charge                     3.366121          37
 redis_pw                                2.742484       40666
 acc_init_cublas                         2.460247           1
 eddav                                   2.435844           5
 dfftw_execute                           2.432775        1284
 lapack                                  2.325760        5367
 eddiag                                  2.256862          35
 eddrmm                                  2.249705          35
 m_alltoall_d                            1.725813      266266
 cnorma                                  1.671525       63228
 fft3d                                   1.372214      192508
 overl1                                  1.346138       80934
 fftwav                                  1.212893      118908
 soft_charge                             1.089617          36
 rpromu_acc                              0.960429       20877
 w1_copy                                 0.876611      167874
 hamilt_local                            0.836060       17640
 acc_init_cusolver                       0.799880           1
 m_alltoallv_z                           0.793440        1563
 w1_dscal                                0.786631      132120
 setup_precond                           0.711444       20160
 apply_precond                           0.669805      147486
 racc0mu_acc                             0.647426       20093
 w1_gaxpy                                0.637108      123152
 newband                                 0.606003       22333
 redis_proj                              0.522343       45840
 w1_daxpy                                0.504999       91944
 hamiltmu                                0.492005       20093
 w1_dot                                  0.482073       17256
 fft3d_mpi                               0.432400       75015
 rpro_isp                                0.426587         364
 pw_charge                               0.397671       14428
 map_scatter                             0.375524        1563
 kinhamil                                0.319999       73600
 vhamil                                  0.319862       73600
 map_gather                              0.319448        1563
 overl_mu                                0.305169       20093
 orthch                                  0.296301          36
 fftext_mpi                              0.295203       73600
 orth1                                   0.294418       24053
 set_charge                              0.292447          36
 depsum                                  0.292413          36
 zhegv                                   0.245509       28716
 choleski                                0.226778        2016
 rspher_all                              0.189815          14
 overl                                   0.177522       20652
 m_bcast_z                               0.166279        7383
 fftwav_mpi                              0.160321      118908
 potlok                                  0.141633          38
 i3                                      0.123475       14726
 acc_cufft_makeplan                      0.119755          19
 fftbas_plan_mpi                         0.097118        1415
 m_bcast_d                               0.091353       10815
 lincom                                  0.081503        4256
 elmin                                   0.078550           1
 ggemm                                   0.072225        6767
 proall                                  0.043666           1
 sphpro_fast                             0.037360           2
 brmix                                   0.035159          36
 setg0                                   0.028875          38
 broyd                                   0.028090          36
 w1_projall                              0.017312       18693
 i1                                      0.014650       14726
 brget                                   0.010091        3468
 force_and_stress                        0.008797           1
 map_backward                            0.008025        1482
 strnlr                                  0.007548           1
 map_forward                             0.007226        1348
 truncate_high_frequency_w1              0.005681       76120
 inisym                                  0.004534           1
 pothar                                  0.003927          39
 fornlr                                  0.002590           1
 stufak                                  0.002480           1
 brsav                                   0.002414         817
 fft_gq                                  0.001992          36
 forhar                                  0.001947           2
 strelo                                  0.001650           1
 strehar                                 0.001249           1
 forloc                                  0.001032           1
 fftbrc_mpi                              0.000901        1415
 brpre                                   0.000689          72
 fewald                                  0.000354           1
 shift_bands_between_low_high            0.000251        1960
 chggra                                  0.000247           1
 strkin                                  0.000227           1
 set_dd_magatom                          0.000163          38
 brgrid                                  0.000160           1
 vectorpot                               0.000158          37
 rsp                                     0.000093           1
 fordep                                  0.000048           1
 crpa_reader                             0.000027           1
 posmap                                  0.000022           2
 rcp                                     0.000011           1
 acc_cufft_makeplans                     0.000010           3
 potlok_metagga                          0.000003          37
 rotate_active_occupied_orbital          0.000000           1
 redis_pw_over_bands                     0.000000           1
 ---------------------------------------------------------------
  summed up times     179.4933898448944     
 
 Accumulative profile
 ====================
 
             routine name                   CPU           calls
 ---------------------------------------------------------------
 total_time                            179.493390           1
 elmin                                 143.055894           1
 eddrmm                                 53.890443          35
 set_dd_paw                             53.383183          38
 m_sumb_d                               40.939687       23622
 hamiltmu                               20.909252       20093
 raccmu_                                19.291142       20093
 eddav                                  15.041653           5
 i2                                     12.178969       14726
 i3                                     11.495240       14726
 init_acc                               11.291836           1
 setdij_                                 8.240491          64
 phaser                                  7.724311        2604
 force_and_stress                        7.166840           1
 set_charge                              7.152231          36
 eccp                                    6.705836       83388
 eddiag                                  5.532516          35
 w1_gemv                                 5.281360      161868
 cnorma                                  5.146874       63228
 fft3d_mpi                               4.963621       75015
 augmentation_charge                     4.575890          37
 densta                                  4.278078          41
 fftbrc_mpi                              4.034457        1415
 fftbas_plan_mpi                         4.033556        1415
 newband                                 3.615299       22333
 redis_pw                                3.494453       40666
 eccp_nl                                 3.475348       63228
 orthch                                  2.470586          36
 acc_init_cublas                         2.460247           1
 dfftw_execute                           2.432775        1284
 lapack                                  2.325760        5367
 fftwav_mpi                              2.248663      118908
 fftwav                                  2.088342      118908
 soft_charge                             2.067082          36
 m_alltoall_d                            1.725813      266266
 strnlr                                  1.622269           1
 redis_proj                              1.496187       45840
 fft3d                                   1.372214      192508
 overl1                                  1.346138       80934
 hamilt_local                            1.163264       17640
 kinhamil                                1.133448       73600
 rpro_isp                                0.994717         364
 rpromu_acc                              0.960429       20877
 map_forward                             0.881536        1348
 w1_copy                                 0.876611      167874
 fftext_mpi                              0.813450       73600
 acc_init_cusolver                       0.799880           1
 m_alltoallv_z                           0.793440        1563
 w1_dscal                                0.786631      132120
 fordep                                  0.780590           1
 setup_precond                           0.711444       20160
 apply_precond                           0.669805      147486
 racc0mu_acc                             0.647426       20093
 w1_gaxpy                                0.637108      123152
 map_backward                            0.622127        1482
 w1_projall                              0.608051       18693
 fornlr                                  0.540370           1
 w1_daxpy                                0.504999       91944
 potlok                                  0.502022          38
 w1_dot                                  0.482073       17256
 pw_charge                               0.397671       14428
 map_scatter                             0.375524        1563
 vhamil                                  0.319862       73600
 map_gather                              0.319448        1563
 overl_mu                                0.305169       20093
 depsum                                  0.294917          36
 orth1                                   0.294418       24053
 zhegv                                   0.245509       28716
 choleski                                0.226778        2016
 i1                                      0.222528       14726
 rspher_all                              0.189815          14
 overl                                   0.177522       20652
 m_bcast_z                               0.166279        7383
 proall                                  0.157737           1
 acc_cufft_makeplans                     0.119765           3
 acc_cufft_makeplan                      0.119755          19
 brmix                                   0.112707          36
 m_bcast_d                               0.091353       10815
 lincom                                  0.081503        4256
 ggemm                                   0.072225        6767
 fft_gq                                  0.062276          36
 broyd                                   0.046252          36
 sphpro_fast                             0.038311           2
 setg0                                   0.028875          38
 brget                                   0.010091        3468
 truncate_high_frequency_w1              0.005681       76120
 inisym                                  0.004556           1
 pothar                                  0.004324          39
 stufak                                  0.002480           1
 brsav                                   0.002414         817
 forhar                                  0.001957           2
 strelo                                  0.001749           1
 strehar                                 0.001252           1
 forloc                                  0.001171           1
 chggra                                  0.000792           1
 brpre                                   0.000689          72
 fewald                                  0.000597           1
 shift_bands_between_low_high            0.000251        1960
 strkin                                  0.000239           1
 set_dd_magatom                          0.000163          38
 brgrid                                  0.000160           1
 vectorpot                               0.000158          37
 rsp                                     0.000093           1
 crpa_reader                             0.000027           1
 posmap                                  0.000022           2
 rcp                                     0.000011           1
 potlok_metagga                          0.000003          37
 rotate_active_occupied_orbital          0.000000           1
 redis_pw_over_bands                     0.000000           1
 ---------------------------------------------------------------
 
Profiling took   0.302481  0.203157  0.003209  0.003114 seconds
Profiling took   0.238848 seconds
