 vasp.6.3.2 27Jun22 (build Jul  3 2023 11:46:21) complex                         
 executed on    LinuxNV_CrayMPICH date 2024.04.22  03:15:00
 running on    4 total cores
 distrk:  each k-point on    4 cores,    1 groups
 distr:  one band on NCORE=   1 cores,    4 groups


--------------------------------------------------------------------------------------------------------


 INCAR:
   ADDGRID = True
   ALGO = Normal
   EDIFF = 0.00205
   ENCUT = 520.0
   IBRION = -1
   ICHARG = 0
   ISIF = 3
   ISMEAR = -5
   ISPIN = 2
   KPOINT_BSE = -1 0 0 0
   LAECHG = True
   LASPH = True
   LCHARG = True
   LELF = True
   LORBIT = 11
   LREAL = Auto
   LVHAR = True
   LWAVE = False
   MAGMOM = 4*7.0 34*5.0 3*0.6
   NELM = 1000
   NSW = 0
   PREC = accurate
   SIGMA = 0.05

 POTCAR:    PAW_PBE Gd 23Dec2003                  
 POTCAR:    PAW_PBE Fe_pv 02Aug2007               
 POTCAR:    PAW_PBE C 08Apr2002                   
 POTCAR:    PAW_PBE Gd 23Dec2003                  
   SHA256 =  58854b40b4643190560b0e2b62d2ab46bea96585f82c6231a0f4f44b8c3188dc Gd/POTCAR             
   COPYR  = (c) Copyright 23Dec2003 Georg Kresse                                                    
   COPYR  = This file is part of the software VASP. Any use, copying, and all other rights are regul
   COPYR  = If you do not have a valid VASP license, you may not use, copy or distribute this file. 
   VRHFIN =Gd : [core=Xe4]                                                                          
   LEXCH  = PE                                                                                      
   EATOM  =  3047.6032 eV,  223.9925 Ry                                                             
                                                                                                    
   TITEL  = PAW_PBE Gd 23Dec2003                                                                    
   LULTRA =        F    use ultrasoft PP ?                                                          
   IUNSCR =        1    unscreen: 0-lin 1-nonlin 2-no                                               
   RPACOR =    2.300    partial core radius                                                         
   POMASS =  157.250; ZVAL   =   18.000    mass and valenz                                          
   RCORE  =    2.800    outmost cutoff radius                                                       
   RWIGS  =    2.800; RWIGS  =    1.482    wigner-seitz radius (au A)                               
   ENMAX  =  256.472; ENMIN  =  192.354 eV                                                          
   RCLOC  =    2.316    cutoff for local pot                                                        
   LCOR   =        T    correct aug charges                                                         
   LPAW   =        T    paw PP                                                                      
   EAUG   =  537.243                                                                                
   DEXC   =    0.000                                                                                
   RMAX   =    2.857    core radius for proj-oper                                                   
   RAUG   =    1.300    factor for augmentation sphere                                              
   RDEP   =    2.921    radius for radial grids                                                     
   RDEPT  =    2.247    core radius for aug-charge                                                  
                                                                                                    
   Atomic configuration                                                                             
   14 entries                                                                                       
     n  l   j            E        occ.                                                              
     1  0  0.50    -50087.2354   2.0000                                                             
     2  0  0.50     -8269.2182   2.0000                                                             
     2  1  1.50     -7357.3672   6.0000                                                             
     3  0  0.50     -1833.2681   2.0000                                                             
     3  1  1.50     -1550.9376   6.0000                                                             
     3  2  2.50     -1178.7204  10.0000                                                             
     4  0  0.50      -369.2978   2.0000                                                             
     4  1  1.50      -276.2601   6.0000                                                             
     4  2  2.50      -147.6611  10.0000                                                             
     5  0  0.50       -49.7260   2.0000                                                             
     6  0  0.50        -4.1254   2.0000                                                             
     5  1  1.50       -27.2538   6.0000                                                             
     5  2  2.50        -2.5337   1.0000                                                             
     4  3  2.50        -8.7140   7.0000                                                             
   Description                                                                                      
     l       E           TYP  RCUT    TYP  RCUT                                                     
     0    -49.7259557     23  2.400                                                                 
     0     -4.1254107     23  2.400                                                                 
     1    -27.2537518     23  2.400                                                                 
     1     20.4087390     23  2.400                                                                 
     2     -2.5337329     23  2.500                                                                 
     2     13.6058260     23  2.500                                                                 
     3     -8.7140389     23  2.800                                                                 
     3     -9.5240782     23  2.800                                                                 
  local pseudopotential read in
  partial core-charges read in
  partial kinetic energy density read in
  atomic valenz-charges read in
  non local Contribution for L=            0  read in
    real space projection operators read in
  non local Contribution for L=            0  read in
    real space projection operators read in
  non local Contribution for L=            1  read in
    real space projection operators read in
  non local Contribution for L=            1  read in
    real space projection operators read in
  non local Contribution for L=            2  read in
    real space projection operators read in
  non local Contribution for L=            2  read in
    real space projection operators read in
  non local Contribution for L=            3  read in
    real space projection operators read in
  non local Contribution for L=            3  read in
    real space projection operators read in
    PAW grid and wavefunctions read in
 
   number of l-projection  operators is LMAX  =            8
   number of lm-projection operators is LMMAX =           32
 
 POTCAR:    PAW_PBE Fe_pv 02Aug2007               
   SHA256 =  5d22e414b1f82158bf2c7ecb8b97b28fd0923e48cadc1c3bf74d524558f5dd32 Fe_pv/POTCAR          
   COPYR  = (c) Copyright 02Aug2007 Georg Kresse                                                    
   COPYR  = This file is part of the software VASP. Any use, copying, and all other rights are regul
   COPYR  = If you do not have a valid VASP license, you may not use, copy or distribute this file. 
   VRHFIN =Fe:  3pd7s1                                                                              
   LEXCH  = PE                                                                                      
   EATOM  =  2457.4239 eV,  180.6156 Ry                                                             
                                                                                                    
   TITEL  = PAW_PBE Fe_pv 02Aug2007                                                                 
   LULTRA =        F    use ultrasoft PP ?                                                          
   IUNSCR =        1    unscreen: 0-lin 1-nonlin 2-no                                               
   RPACOR =    1.750    partial core radius                                                         
   POMASS =   55.847; ZVAL   =   14.000    mass and valenz                                          
   RCORE  =    2.200    outmost cutoff radius                                                       
   RWIGS  =    2.200; RWIGS  =    1.164    wigner-seitz radius (au A)                               
   ENMAX  =  293.238; ENMIN  =  219.928 eV                                                          
   ICORE  =        3    local potential                                                             
   LCOR   =        T    correct aug charges                                                         
   LPAW   =        T    paw PP                                                                      
   EAUG   =  578.342                                                                                
   DEXC   =    0.000                                                                                
   RMAX   =    2.249    core radius for proj-oper                                                   
   RAUG   =    1.300    factor for augmentation sphere                                              
   RDEP   =    2.296    radius for radial grids                                                     
   RDEPT  =    1.766    core radius for aug-charge                                                  
                                                                                                    
   Atomic configuration                                                                             
    8 entries                                                                                       
     n  l   j            E        occ.                                                              
     1  0  0.50     -6993.8440   2.0000                                                             
     2  0  0.50      -814.6047   2.0000                                                             
     2  1  1.50      -693.3689   6.0000                                                             
     3  0  0.50       -89.4732   2.0000                                                             
     3  1  1.50       -55.6373   6.0000                                                             
     3  2  2.50        -3.8151   7.0000                                                             
     4  0  0.50        -4.2551   1.0000                                                             
     4  3  2.50        -1.3606   0.0000                                                             
   Description                                                                                      
     l       E           TYP  RCUT    TYP  RCUT                                                     
     1    -55.6372668     23  2.000                                                                 
     1     -5.4423304     23  2.000                                                                 
     2     -3.8151096     23  2.200                                                                 
     2     -5.1756922     23  2.200                                                                 
     0     -4.2550951     23  2.200                                                                 
     0     27.2116520     23  2.200                                                                 
     3     -1.3605826     23  2.200                                                                 
  local pseudopotential read in
  partial core-charges read in
  partial kinetic energy density read in
  atomic valenz-charges read in
  non local Contribution for L=            1  read in
    real space projection operators read in
  non local Contribution for L=            1  read in
    real space projection operators read in
  non local Contribution for L=            2  read in
    real space projection operators read in
  non local Contribution for L=            2  read in
    real space projection operators read in
  non local Contribution for L=            0  read in
    real space projection operators read in
  non local Contribution for L=            0  read in
    real space projection operators read in
    PAW grid and wavefunctions read in
 
   number of l-projection  operators is LMAX  =            6
   number of lm-projection operators is LMMAX =           18
 
 POTCAR:    PAW_PBE C 08Apr2002                   
   SHA256 =  253f7b50bb8d59471dbedb8285d89021f4a42ed1a2c5d38a03a736e69125dd95 C/POTCAR              
   COPYR  = (c) Copyright 08Apr2002 Georg Kresse                                                    
   COPYR  = This file is part of the software VASP. Any use, copying, and all other rights are regul
   COPYR  = If you do not have a valid VASP license, you may not use, copy or distribute this file. 
   VRHFIN =C: s2p2                                                                                  
   LEXCH  = PE                                                                                      
   EATOM  =   147.1560 eV,   10.8157 Ry                                                             
                                                                                                    
   TITEL  = PAW_PBE C 08Apr2002                                                                     
   LULTRA =        F    use ultrasoft PP ?                                                          
   IUNSCR =        1    unscreen: 0-lin 1-nonlin 2-no                                               
   RPACOR =    1.200    partial core radius                                                         
   POMASS =   12.011; ZVAL   =    4.000    mass and valenz                                          
   RCORE  =    1.500    outmost cutoff radius                                                       
   RWIGS  =    1.630; RWIGS  =    0.863    wigner-seitz radius (au A)                               
   ENMAX  =  400.000; ENMIN  =  300.000 eV                                                          
   ICORE  =        2    local potential                                                             
   LCOR   =        T    correct aug charges                                                         
   LPAW   =        T    paw PP                                                                      
   EAUG   =  644.873                                                                                
   DEXC   =    0.000                                                                                
   RMAX   =    1.529    core radius for proj-oper                                                   
   RAUG   =    1.300    factor for augmentation sphere                                              
   RDEP   =    1.501    radius for radial grids                                                     
   RDEPT  =    1.300    core radius for aug-charge                                                  
                                                                                                    
   Atomic configuration                                                                             
    4 entries                                                                                       
     n  l   j            E        occ.                                                              
     1  0  0.50      -273.3789   2.0000                                                             
     2  0  0.50       -13.7508   2.0000                                                             
     2  1  0.50        -5.2854   2.0000                                                             
     3  2  1.50        -5.4423   0.0000                                                             
   Description                                                                                      
     l       E           TYP  RCUT    TYP  RCUT                                                     
     0    -13.7508458     23  1.200                                                                 
     0     -8.2022199     23  1.200                                                                 
     1     -5.2854383     23  1.500                                                                 
     1     34.0145650     23  1.500                                                                 
     2     -5.4423304      7  1.500                                                                 
  local pseudopotential read in
  partial core-charges read in
  partial kinetic energy density read in
  atomic valenz-charges read in
  non local Contribution for L=            0  read in
    real space projection operators read in
  non local Contribution for L=            0  read in
    real space projection operators read in
  non local Contribution for L=            1  read in
    real space projection operators read in
  non local Contribution for L=            1  read in
    real space projection operators read in
    PAW grid and wavefunctions read in
 
   number of l-projection  operators is LMAX  =            4
   number of lm-projection operators is LMMAX =            8
 
 Optimization of the real space projectors (new method)

 maximal supplied QI-value         = 13.42
 optimisation between [QCUT,QGAM] = [ 11.67, 23.35] = [ 38.16,152.62] Ry 
 Optimized for a Real-space Cutoff    1.63 Angstroem

   l    n(q)    QCUT    max X(q) W(low)/X(q) W(high)/X(q)  e(spline) 
   0     11    11.673    10.501    0.14E-04    0.17E-05    0.21E-07
   0     11    11.673     9.148    0.21E-04    0.32E-05    0.45E-07
   1     11    11.673     4.035    0.33E-05    0.11E-04    0.84E-07
   1     11    11.673     4.388    0.11E-04    0.47E-04    0.34E-06
   2     10    11.673    20.656    0.12E-04    0.28E-04    0.54E-06
   2     10    11.673    12.651    0.11E-04    0.26E-04    0.51E-06
   3     10    11.673    61.921    0.19E-03    0.22E-03    0.23E-06
   3     10    11.673    48.328    0.20E-03    0.23E-03    0.23E-06
 Optimization of the real space projectors (new method)

 maximal supplied QI-value         = 17.01
 optimisation between [QCUT,QGAM] = [ 11.57, 23.30] = [ 37.45,152.03] Ry 
 Optimized for a Real-space Cutoff    1.45 Angstroem

   l    n(q)    QCUT    max X(q) W(low)/X(q) W(high)/X(q)  e(spline) 
   1     10    11.565     4.267    0.91E-04    0.15E-03    0.13E-06
   1     10    11.565     5.750    0.14E-03    0.22E-03    0.20E-06
   2      9    11.565    53.656    0.13E-03    0.57E-04    0.16E-06
   2      9    11.565    49.521    0.13E-03    0.59E-04    0.16E-06
   0     10    11.565    31.246    0.61E-04    0.74E-05    0.89E-07
   0     10    11.565    12.201    0.44E-04    0.68E-05    0.74E-07
 Optimization of the real space projectors (new method)

 maximal supplied QI-value         = 25.13
 optimisation between [QCUT,QGAM] = [ 11.56, 23.12] = [ 37.43,149.72] Ry 
 Optimized for a Real-space Cutoff    1.04 Angstroem

   l    n(q)    QCUT    max X(q) W(low)/X(q) W(high)/X(q)  e(spline) 
   0      7    11.561   115.676    0.20E-03    0.60E-03    0.21E-06
   0      7    11.561    87.132    0.20E-03    0.59E-03    0.21E-06
   1      7    11.561     4.429    0.23E-03    0.35E-03    0.15E-06
   1      7    11.561     2.733    0.18E-03    0.25E-03    0.12E-06
  PAW_PBE Gd 23Dec2003                  :
 energy of atom  1       EATOM=-3047.6032
 kinetic energy error for atom=    0.0019 (will be added to EATOM!!)
  PAW_PBE Fe_pv 02Aug2007               :
 energy of atom  2       EATOM=-2457.4239
 kinetic energy error for atom=    0.0062 (will be added to EATOM!!)
  PAW_PBE C 08Apr2002                   :
 energy of atom  3       EATOM= -147.1560
 kinetic energy error for atom=    0.0071 (will be added to EATOM!!)
 
 
 POSCAR: Gd4 Fe34 C3
  positions in direct lattice
  No initial velocities read in
 exchange correlation table for  LEXCH =        8
   RHO(1)=    0.500       N(1)  =     2000
   RHO(2)=  100.500       N(2)  =     4000

 VTST: version 4.2, (08/11/21)

 CHAIN: initializing optimizer
 
 OPT: Using VASP Dynamics algorithm
 CHAIN: Read ICHAIN             0
 
 POSCAR: Gd4 Fe34 C3
  positions in direct lattice
  No initial velocities read in
 


--------------------------------------------------------------------------------------------------------


 ion  position               nearest neighbor table
   1  0.350  0.336  0.424-  39 2.52  41 2.52   5 3.03  17 3.06  25 3.06  29 3.07  31 3.08  23 3.10
                            11 3.12   7 3.12   9 3.13  27 3.16  22 3.17
   2  0.338  0.340  0.926-  40 2.54  24 3.03  30 3.05  10 3.05  18 3.05   6 3.05  26 3.10  28 3.11
                            16 3.14   8 3.14  32 3.14  21 3.15  12 3.17
   3  0.650  0.664  0.576-  40 2.52  41 2.52  11 3.03  19 3.06  29 3.06  25 3.07  21 3.08  27 3.10
                             5 3.12  13 3.12  15 3.13  23 3.16  32 3.17
   4  0.662  0.660  0.074-  39 2.54  28 3.03  26 3.05  16 3.05  20 3.05  12 3.05  30 3.10  24 3.11
                            10 3.14  14 3.14  22 3.14  31 3.15   6 3.17
   5  0.655  0.144  0.578-  33 2.46  35 2.47  13 2.55  15 2.56  23 2.57  32 2.58  29 2.64  19 2.65
                            25 2.65   1 3.03   3 3.12
   6  0.656  0.149  0.077-  34 2.46  36 2.47  16 2.52  14 2.55  24 2.55  31 2.56  26 2.62  30 2.64
                            20 2.66   2 3.05   4 3.17
   7  0.655  0.659  0.322-  39 1.90  37 2.46  36 2.46  11 2.55  25 2.55  27 2.57  15 2.60  22 2.63
                            20 2.64  31 2.66   1 3.12
   8  0.658  0.656  0.825-  40 1.90  38 2.47  35 2.48  12 2.55  28 2.55  16 2.56  26 2.56  19 2.65
                            32 2.66  21 2.66   2 3.14
   9  0.146  0.658  0.578-  41 1.90  33 2.46  38 2.48  29 2.56  11 2.56  21 2.57  13 2.60  19 2.63
                            27 2.65  23 2.66   1 3.13
  10  0.148  0.658  0.077-  37 2.47  34 2.47  12 2.52  30 2.55  22 2.56  14 2.56  28 2.64  20 2.65
                            24 2.68   2 3.05   4 3.14
  11  0.345  0.856  0.422-  33 2.46  36 2.47   7 2.55   9 2.56  27 2.57  22 2.58  25 2.64  17 2.65
                            29 2.65   3 3.03   1 3.12
  12  0.344  0.851  0.923-  34 2.46  35 2.47  10 2.52   8 2.55  28 2.55  21 2.56  30 2.62  26 2.64
                            18 2.66   4 3.05   2 3.17
  13  0.345  0.341  0.678-  40 1.90  38 2.46  35 2.46   5 2.55  29 2.55  23 2.57   9 2.60  32 2.63
                            18 2.64  21 2.66   3 3.12
  14  0.342  0.344  0.175-  39 1.90  37 2.47  36 2.48   6 2.55  24 2.55  10 2.56  30 2.56  17 2.65
                            22 2.66  31 2.66   4 3.14
  15  0.854  0.342  0.422-  41 1.90  33 2.46  37 2.48  25 2.56   5 2.56  31 2.57   7 2.60  17 2.63
                            23 2.65  27 2.66   3 3.13
  16  0.852  0.342  0.923-  38 2.47  34 2.47   6 2.52  26 2.55  32 2.56   8 2.56  24 2.64  18 2.65
                            28 2.68   4 3.05   2 3.14
  17  0.097  0.096  0.299-  20 2.39  36 2.62  33 2.63  15 2.63  11 2.65  14 2.65  37 2.66  25 2.71
                            30 2.74  22 2.74  24 2.74  27 2.74  31 2.74   1 3.06
  18  0.096  0.095  0.799-  19 2.39  34 2.62  35 2.63  38 2.64  13 2.64  16 2.65  12 2.66  29 2.71
                            28 2.72  26 2.73  21 2.73  32 2.73  23 2.74   2 3.05
  19  0.903  0.904  0.701-  18 2.39  35 2.62  33 2.63   9 2.63   5 2.65   8 2.65  38 2.66  29 2.71
                            26 2.74  32 2.74  28 2.74  23 2.74  21 2.74   3 3.06
  20  0.904  0.905  0.201-  17 2.39  34 2.62  36 2.63  37 2.64   7 2.64  10 2.65   6 2.66  25 2.71
                            24 2.72  30 2.73  31 2.73  22 2.73  27 2.74   4 3.05
  21  0.285  0.715  0.751-  40 1.85  38 2.41  35 2.42  28 2.44  29 2.46  12 2.56   9 2.57   8 2.66
                            13 2.66  18 2.73  19 2.74   3 3.08   2 3.15
  22  0.285  0.714  0.249-  39 1.85  37 2.43  36 2.44  27 2.44  30 2.46  10 2.56  11 2.58   7 2.63
                            14 2.66  20 2.73  17 2.74   4 3.14   1 3.17
  23  0.999  0.286  0.608-  41 1.85  38 2.43  33 2.43  32 2.44  29 2.46  13 2.57   5 2.57  15 2.65
                             9 2.66  19 2.74  18 2.74   1 3.10   3 3.16
  24  0.999  0.283  0.107-  34 2.41  37 2.42  31 2.44  30 2.47   6 2.55  14 2.55  16 2.64  10 2.68
                            20 2.72  17 2.74   2 3.03   4 3.11
  25  0.717  0.999  0.392-  36 2.42  33 2.42  27 2.46  31 2.46   7 2.55  15 2.56  11 2.64   5 2.65
                            17 2.71  20 2.71   1 3.06   3 3.07
  26  0.713  0.001  0.893-  35 2.42  34 2.43  32 2.46  28 2.47  16 2.55   8 2.56   6 2.62  12 2.64
                            18 2.73  19 2.74   4 3.05   2 3.10
  27  0.001  0.714  0.392-  41 1.85  37 2.43  33 2.43  22 2.44  25 2.46   7 2.57  11 2.57   9 2.65
                            15 2.66  17 2.74  20 2.74   3 3.10   1 3.16
  28  0.001  0.717  0.893-  34 2.41  38 2.42  21 2.44  26 2.47  12 2.55   8 2.55  10 2.64  16 2.68
                            18 2.72  19 2.74   4 3.03   2 3.11
  29  0.283  0.001  0.608-  35 2.42  33 2.42  23 2.46  21 2.46  13 2.55   9 2.56   5 2.64  11 2.65
                            19 2.71  18 2.71   3 3.06   1 3.07
  30  0.287  0.999  0.107-  36 2.42  34 2.43  22 2.46  24 2.47  10 2.55  14 2.56  12 2.62   6 2.64
                            20 2.73  17 2.74   2 3.05   4 3.10
  31  0.715  0.285  0.249-  39 1.85  37 2.41  36 2.42  24 2.44  25 2.46   6 2.56  15 2.57  14 2.66
                             7 2.66  20 2.73  17 2.74   1 3.08   4 3.15
  32  0.715  0.286  0.751-  40 1.85  38 2.43  35 2.44  23 2.44  26 2.46  16 2.56   5 2.58  13 2.63
                             8 2.66  18 2.73  19 2.74   2 3.14   3 3.17
  33  0.000  0.000  0.500-  25 2.42  29 2.42  27 2.43  23 2.43   5 2.46  11 2.46   9 2.46  15 2.46
                            17 2.63  19 2.63
  34  0.000  0.000  0.000-  24 2.41  28 2.41  26 2.43  30 2.43   6 2.46  12 2.46  10 2.47  16 2.47
                            18 2.62  20 2.62
  35  0.500  0.998  0.751-  21 2.42  26 2.42  29 2.42  32 2.44  13 2.46   5 2.47  12 2.47   8 2.48
                            19 2.62  18 2.63
  36  0.500  0.002  0.249-  31 2.42  30 2.42  25 2.42  22 2.44   7 2.46  11 2.47   6 2.47  14 2.48
                            17 2.62  20 2.63
  37  0.998  0.501  0.248-  31 2.41  24 2.42  22 2.43  27 2.43   7 2.46  10 2.47  14 2.47  15 2.48
                            20 2.64  17 2.66
  38  0.002  0.499  0.752-  21 2.41  28 2.42  32 2.43  23 2.43  13 2.46  16 2.47   8 2.47   9 2.48
                            18 2.64  19 2.66
  39  0.500  0.499  0.249-  31 1.85  22 1.85  14 1.90   7 1.90   1 2.52   4 2.54
  40  0.500  0.501  0.751-  21 1.85  32 1.85   8 1.90  13 1.90   3 2.52   2 2.54
  41  0.000  0.500  0.500-  23 1.85  27 1.85   9 1.90  15 1.90   1 2.52   3 2.52
 
  LATTYP: Found a triclinic cell.
 ALAT       =     6.4423270000
 B/A-ratio  =     1.3380702085
 C/A-ratio  =     2.0018858450
 COS(alpha) =     0.0035817065
 COS(beta)  =     0.1136455270
 COS(gamma) =     0.6651269008
  
  Lattice vectors:
  
 A1 = (  -6.4423270000,   0.0000000000,   0.0000000000)
 A2 = (  -5.7335840000,   6.4370290000,   0.0000000000)
 A3 = (  -1.4656640000,  -1.2436350000, -12.7527540000)


Analysis of symmetry for initial positions (statically):
=====================================================================
 Subroutine PRICEL returns:
 Original cell was already a primitive cell.
 

 Routine SETGRP: Setting up the symmetry group for a 
 triclinic supercell.


 Subroutine GETGRP returns: Found  2 space group operations
 (whereof  2 operations were pure point group operations)
 out of a pool of  2 trial point group operations.


The static configuration has the point symmetry S_2 .


Analysis of symmetry for dynamics (positions and initial velocities):
=====================================================================
 Subroutine PRICEL returns:
 Original cell was already a primitive cell.
 

 Routine SETGRP: Setting up the symmetry group for a 
 triclinic supercell.


 Subroutine GETGRP returns: Found  2 space group operations
 (whereof  2 operations were pure point group operations)
 out of a pool of  2 trial point group operations.


The dynamic configuration has the point symmetry S_2 .


Analysis of structural, dynamic, and magnetic symmetry:
=====================================================================
 Subroutine PRICEL returns:
 Original cell was already a primitive cell.
 

 Routine SETGRP: Setting up the symmetry group for a 
 triclinic supercell.


 Subroutine GETGRP returns: Found  2 space group operations
 (whereof  2 operations were pure point group operations)
 out of a pool of  2 trial point group operations.


The overall configuration has the point symmetry S_2 .


 Subroutine INISYM returns: Found  2 space group operations
 (whereof  2 operations are pure point group operations),
 and found     1 'primitive' translations


----------------------------------------------------------------------------------------

                                     Primitive cell                                     

  volume of cell :     528.8496

  direct lattice vectors                    reciprocal lattice vectors
     6.442327000  0.000000000  0.000000000     0.155223415 -0.017090728 -0.016173036
     0.708743000  6.437029000  0.000000000     0.000000000  0.155351172 -0.015149681
     1.465664000  1.243635000 12.752754000     0.000000000  0.000000000  0.078414435

  length of vectors
     6.442327000  6.475929199 12.896803230     0.156996716  0.156088115  0.078414435

  position of ions in fractional coordinates (direct lattice)
     0.349503000  0.335775000  0.423683000
     0.338241000  0.340104000  0.926358000
     0.650497000  0.664225000  0.576317000
     0.661759000  0.659896000  0.073642000
     0.655386000  0.144387000  0.577925000
     0.655966000  0.148630000  0.076821000
     0.655390000  0.658931000  0.321892000
     0.657515000  0.656490000  0.825016000
     0.145515000  0.658442000  0.578339000
     0.148207000  0.657767000  0.077196000
     0.344614000  0.855613000  0.422075000
     0.344034000  0.851370000  0.923179000
     0.344610000  0.341069000  0.678108000
     0.342485000  0.343510000  0.174984000
     0.854485000  0.341558000  0.421661000
     0.851793000  0.342233000  0.922804000
     0.097389000  0.096121000  0.298544000
     0.096295000  0.095492000  0.799074000
     0.902611000  0.903879000  0.701456000
     0.903705000  0.904508000  0.200926000
     0.284816000  0.714545000  0.750871000
     0.285184000  0.714342000  0.249496000
     0.999147000  0.286151000  0.607870000
     0.999341000  0.283270000  0.107290000
     0.716581000  0.999314000  0.391571000
     0.712843000  0.001146000  0.893146000
     0.000853000  0.713849000  0.392130000
     0.000659000  0.716730000  0.892710000
     0.283419000  0.000686000  0.608429000
     0.287157000  0.998854000  0.106854000
     0.715184000  0.285455000  0.249129000
     0.714816000  0.285658000  0.750504000
     1.000000000  0.000000000  0.500000000
     0.000000000  0.000000000  0.000000000
     0.499541000  0.998475000  0.750615000
     0.500459000  0.001525000  0.249385000
     0.998339000  0.500725000  0.248308000
     0.001661000  0.499275000  0.751692000
     0.500016000  0.499121000  0.248975000
     0.499984000  0.500879000  0.751025000
     1.000000000  0.500000000  0.500000000

  ion indices of the primitive-cell ions
   primitive index   ion index
                 1           1
                 2           2
                 3           3
                 4           4
                 5           5
                 6           6
                 7           7
                 8           8
                 9           9
                10          10
                11          11
                12          12
                13          13
                14          14
                15          15
                16          16
                17          17
                18          18
                19          19
                20          20
                21          21
                22          22
                23          23
                24          24
                25          25
                26          26
                27          27
                28          28
                29          29
                30          30
                31          31
                32          32
                33          33
                34          34
                35          35
                36          36
                37          37
                38          38
                39          39
                40          40
                41          41

----------------------------------------------------------------------------------------

 
 
 KPOINTS: Kpoints from vasprun.xml                

Automatic generation of k-mesh.
 Grid dimensions read from file:
 generate k-points for:    4    4    2

 Generating k-lattice:

  Cartesian coordinates                     Fractional coordinates (reciprocal lattice)
     0.038805854 -0.004272682 -0.004043259     0.250000000  0.000000000 -0.000000000
     0.000000000  0.038837793 -0.003787420     0.000000000  0.250000000  0.000000000
     0.000000000  0.000000000  0.039207218     0.000000000  0.000000000  0.500000000

  Length of vectors
     0.039249179  0.039022029  0.039207218

  Shift w.r.t. Gamma in fractional coordinates (k-lattice)
     0.000000000  0.000000000  0.000000000

 TETIRR: Found     96 inequivalent tetrahedra from      192
 
 Subroutine IBZKPT returns following result:
 ===========================================
 
 Found     20 irreducible k-points:
 
 Following reciprocal coordinates:
            Coordinates               Weight
  0.000000  0.000000  0.000000      1.000000
  0.250000  0.000000  0.000000      2.000000
  0.500000  0.000000  0.000000      1.000000
  0.000000  0.250000  0.000000      2.000000
  0.250000  0.250000  0.000000      2.000000
  0.500000  0.250000  0.000000      2.000000
 -0.250000  0.250000  0.000000      2.000000
  0.000000  0.500000  0.000000      1.000000
  0.250000  0.500000  0.000000      2.000000
  0.500000  0.500000  0.000000      1.000000
  0.000000  0.000000  0.500000      1.000000
  0.250000  0.000000  0.500000      2.000000
  0.500000  0.000000  0.500000      1.000000
  0.000000  0.250000  0.500000      2.000000
  0.250000  0.250000  0.500000      2.000000
  0.500000  0.250000  0.500000      2.000000
 -0.250000  0.250000  0.500000      2.000000
  0.000000  0.500000  0.500000      1.000000
  0.250000  0.500000  0.500000      2.000000
  0.500000  0.500000  0.500000      1.000000
 
 Following cartesian coordinates:
            Coordinates               Weight
  0.000000  0.000000  0.000000      1.000000
  0.038806 -0.004273 -0.004043      2.000000
  0.077612 -0.008545 -0.008087      1.000000
  0.000000  0.038838 -0.003787      2.000000
  0.038806  0.034565 -0.007831      2.000000
  0.077612  0.030292 -0.011874      2.000000
 -0.038806  0.043110  0.000256      2.000000
  0.000000  0.077676 -0.007575      1.000000
  0.038806  0.073403 -0.011618      2.000000
  0.077612  0.069130 -0.015661      1.000000
  0.000000  0.000000  0.039207      1.000000
  0.038806 -0.004273  0.035164      2.000000
  0.077612 -0.008545  0.031121      1.000000
  0.000000  0.038838  0.035420      2.000000
  0.038806  0.034565  0.031377      2.000000
  0.077612  0.030292  0.027333      2.000000
 -0.038806  0.043110  0.039463      2.000000
  0.000000  0.077676  0.031632      1.000000
  0.038806  0.073403  0.027589      2.000000
  0.077612  0.069130  0.023546      1.000000
 


--------------------------------------------------------------------------------------------------------




 Dimension of arrays:
   k-points           NKPTS =     20   k-points in BZ     NKDIM =     20   number of bands    NBANDS=    436
   number of dos      NEDOS =    301   number of ions     NIONS =     41
   non local maximal  LDIM  =      8   non local SUM 2l+1 LMDIM =     32
   total plane-waves  NPLWV = 221184
   max r-space proj   IRMAX =   7598   max aug-charges    IRDMAX= 198107
   dimension x,y,z NGX =    48 NGY =   48 NGZ =   96
   dimension x,y,z NGXF=    96 NGYF=   96 NGZF=  192
   support grid    NGXF=   192 NGYF=  192 NGZF=  384
   ions per type =               4  34   3
   NGX,Y,Z   is equivalent  to a cutoff of  12.39, 12.32, 12.37 a.u.
   NGXF,Y,Z  is equivalent  to a cutoff of  24.77, 24.64, 24.75 a.u.

 SYSTEM =  unknown system                          
 POSCAR =  Gd4 Fe34 C3                             

 Startparameter for this run:
   NWRITE =      2    write-flag & timer
   PREC   = accura    normal or accurate (medium, high low for compatibility)
   ISTART =      0    job   : 0-new  1-cont  2-samecut
   ICHARG =      0    charge: 1-file 2-atom 10-const
   ISPIN  =      2    spin polarized calculation?
   LNONCOLLINEAR =      F non collinear calculations
   LSORBIT =      F    spin-orbit coupling
   INIWAV =      1    electr: 0-lowe 1-rand  2-diag
   LASPH  =      T    aspherical Exc in radial PAW
 Electronic Relaxation 1
   ENCUT  =  520.0 eV  38.22 Ry    6.18 a.u.  11.98 12.04 23.98*2*pi/ulx,y,z
   ENINI  =  520.0     initial cutoff
   ENAUG  =  644.9 eV  augmentation charge cutoff
   NELM   =   1000;   NELMIN=  2; NELMDL= -5     # of ELM steps 
   EDIFF  = 0.2E-02   stopping-criterion for ELM
   LREAL  =      T    real-space projection
   NLSPLINE    = F    spline interpolate recip. space projectors
   LCOMPAT=      F    compatible to vasp.4.4
   GGA_COMPAT  = T    GGA compatible to vasp.4.4-vasp.4.6
   LMAXPAW     = -100 max onsite density
   LMAXMIX     =    2 max onsite mixed and CHGCAR
   VOSKOWN=      0    Vosko Wilk Nusair interpolation
   ROPT   =   -0.00025  -0.00025  -0.00025
 Ionic relaxation
   EDIFFG = 0.2E-01   stopping-criterion for IOM
   NSW    =      0    number of steps for IOM
   NBLOCK =      1;   KBLOCK =      1    inner block; outer block 
   IBRION =     -1    ionic relax: 0-MD 1-quasi-New 2-CG
   NFREE  =      0    steps in history (QN), initial steepest desc. (CG)
   ISIF   =      3    stress and relaxation
   IWAVPR =     10    prediction:  0-non 1-charg 2-wave 3-comb
   ISYM   =      2    0-nonsym 1-usesym 2-fastsym
   LCORR  =      T    Harris-Foulkes like correction to forces

   POTIM  = 0.5000    time-step for ionic-motion
   TEIN   =    0.0    initial temperature
   TEBEG  =    0.0;   TEEND  =   0.0 temperature during run
   SMASS  =  -3.00    Nose mass-parameter (am)
   estimated Nose-frequenzy (Omega)   =  0.10E-29 period in steps = 0.13E+47 mass=  -0.948E-27a.u.
   SCALEE = 1.0000    scale energy and forces
   NPACO  =    256;   APACO  = 10.0  distance and # of slots for P.C.
   PSTRESS=    0.0 pullay stress

  Mass of Ions in am
   POMASS = 157.25 55.85 12.01
  Ionic Valenz
   ZVAL   =  18.00 14.00  4.00
  Atomic Wigner-Seitz radii
   RWIGS  =  -1.00 -1.00 -1.00
  virtual crystal weights 
   VCA    =   1.00  1.00  1.00
   NELECT =     560.0000    total number of electrons
   NUPDOWN=      -1.0000    fix difference up-down

 DOS related values:
   EMIN   =  10.00;   EMAX   =-10.00  energy-range for DOS
   EFERMI =   0.00
   ISMEAR =    -5;   SIGMA  =   0.05  broadening in eV -4-tet -1-fermi 0-gaus

 Electronic relaxation 2 (details)
   IALGO  =     38    algorithm
   LDIAG  =      T    sub-space diagonalisation (order eigenvalues)
   LSUBROT=      F    optimize rotation matrix (better conditioning)
   TURBO    =      0    0=normal 1=particle mesh
   IRESTART =      0    0=no restart 2=restart with 2 vectors
   NREBOOT  =      0    no. of reboots
   NMIN     =      0    reboot dimension
   EREF     =   0.00    reference energy to select bands
   IMIX   =      4    mixing-type and parameters
     AMIX     =   0.40;   BMIX     =  1.00
     AMIX_MAG =   1.60;   BMIX_MAG =  1.00
     AMIN     =   0.10
     WC   =   100.;   INIMIX=   1;  MIXPRE=   1;  MAXMIX= -45

 Intra band minimization:
   WEIMIN = 0.0000     energy-eigenvalue tresh-hold
   EBREAK =  0.12E-05  absolut break condition
   DEPER  =   0.30     relativ break condition  

   TIME   =   0.40     timestep for ELM

  volume/ion in A,a.u.               =      12.90        87.05
  Fermi-wavevector in a.u.,A,eV,Ry     =   1.668630  3.153254 37.883066  2.784327
  Thomas-Fermi vector in A             =   2.754444
 
 Write flags
   LWAVE        =      F    write WAVECAR
   LDOWNSAMPLE  =      F    k-point downsampling of WAVECAR
   LCHARG       =      T    write CHGCAR
   LVTOT        =      F    write LOCPOT, total local potential
   LVHAR        =      T    write LOCPOT, Hartree potential only
   LELF         =      T    write electronic localiz. function (ELF)
   LORBIT       =     11    0 simple, 1 ext, 2 COOP (PROOUT), +10 PAW based schemes


 Dipole corrections
   LMONO  =      F    monopole corrections only (constant potential shift)
   LDIPOL =      F    correct potential (dipole corrections)
   IDIPOL =      0    1-x, 2-y, 3-z, 4-all directions 
   EPSILON=  1.0000000 bulk dielectric constant

 Exchange correlation treatment:
   GGA     =    --    GGA type
   LEXCH   =     8    internal setting for exchange type
   LIBXC   =     F    Libxc                    
   VOSKOWN =     0    Vosko Wilk Nusair interpolation
   LHFCALC =     F    Hartree Fock is set to
   LHFONE  =     F    Hartree Fock one center treatment
   AEXX    =    0.0000 exact exchange contribution

 Linear response parameters
   LEPSILON=     F    determine dielectric tensor
   LRPA    =     F    only Hartree local field effects (RPA)
   LNABLA  =     F    use nabla operator in PAW spheres
   LVEL    =     F    velocity operator in full k-point grid
   CSHIFT  =0.1000    complex shift for real part using Kramers Kronig
   OMEGAMAX=  -1.0    maximum frequency
   DEG_THRESHOLD= 0.2000000E-02 threshold for treating states as degnerate
   RTIME   =   -0.100 relaxation time in fs
  (WPLASMAI=    0.000 imaginary part of plasma frequency in eV, 0.658/RTIME)
   DFIELD  = 0.0000000 0.0000000 0.0000000 field for delta impulse in time
 
  Optional k-point grid parameters
   LKPOINTS_OPT  =     F    use optional k-point grid
   KPOINTS_OPT_MODE=     1    mode for optional k-point grid
 
 Orbital magnetization related:
   ORBITALMAG=     F  switch on orbital magnetization
   LCHIMAG   =     F  perturbation theory with respect to B field
   DQ        =  0.001000  dq finite difference perturbation B field
   LLRAUG    =     F  two centre corrections for induced B field



--------------------------------------------------------------------------------------------------------


 Static calculation
 charge density and potential will be updated during run
 spin polarized calculation
 Variant of blocked Davidson
 Davidson routine will perform the subspace rotation
 perform sub-space diagonalisation
    after iterative eigenvector-optimisation
 modified Broyden-mixing scheme, WC =      100.0
 initial mixing is a Kerker type mixing with AMIX =  0.4000 and BMIX =      1.0000
 Hartree-type preconditioning will be used
 using additional bands           156
 real space projection scheme for non local part
 use partial core corrections
 calculate Harris-corrections to forces 
   (improved forces if not selfconsistent)
 use gradient corrections 
 use of overlap-Matrix (Vanderbilt PP)
 Fermi weights with tetrahedron method with Bloechl corrections


--------------------------------------------------------------------------------------------------------


  energy-cutoff  :      520.00
  volume of cell :      528.85
      direct lattice vectors                 reciprocal lattice vectors
     6.442327000  0.000000000  0.000000000     0.155223415 -0.017090728 -0.016173036
     0.708743000  6.437029000  0.000000000     0.000000000  0.155351172 -0.015149681
     1.465664000  1.243635000 12.752754000     0.000000000  0.000000000  0.078414435

  length of vectors
     6.442327000  6.475929199 12.896803230     0.156996716  0.156088115  0.078414435


 
 k-points in units of 2pi/SCALE and weight: Kpoints from vasprun.xml                
   0.00000000  0.00000000  0.00000000       0.031
   0.03880585 -0.00427268 -0.00404326       0.063
   0.07761171 -0.00854536 -0.00808652       0.031
   0.00000000  0.03883779 -0.00378742       0.063
   0.03880585  0.03456511 -0.00783068       0.063
   0.07761171  0.03029243 -0.01187394       0.063
  -0.03880585  0.04311047  0.00025584       0.063
   0.00000000  0.07767559 -0.00757484       0.031
   0.03880585  0.07340290 -0.01161810       0.063
   0.07761171  0.06913022 -0.01566136       0.031
   0.00000000  0.00000000  0.03920722       0.031
   0.03880585 -0.00427268  0.03516396       0.063
   0.07761171 -0.00854536  0.03112070       0.031
   0.00000000  0.03883779  0.03541980       0.063
   0.03880585  0.03456511  0.03137654       0.063
   0.07761171  0.03029243  0.02733328       0.063
  -0.03880585  0.04311047  0.03946306       0.063
   0.00000000  0.07767559  0.03163238       0.031
   0.03880585  0.07340290  0.02758912       0.063
   0.07761171  0.06913022  0.02354586       0.031
 
 k-points in reciprocal lattice and weights: Kpoints from vasprun.xml                
   0.00000000  0.00000000  0.00000000       0.031
   0.25000000  0.00000000  0.00000000       0.063
   0.50000000  0.00000000  0.00000000       0.031
   0.00000000  0.25000000  0.00000000       0.063
   0.25000000  0.25000000  0.00000000       0.063
   0.50000000  0.25000000  0.00000000       0.063
  -0.25000000  0.25000000  0.00000000       0.063
   0.00000000  0.50000000  0.00000000       0.031
   0.25000000  0.50000000  0.00000000       0.063
   0.50000000  0.50000000  0.00000000       0.031
   0.00000000  0.00000000  0.50000000       0.031
   0.25000000  0.00000000  0.50000000       0.063
   0.50000000  0.00000000  0.50000000       0.031
   0.00000000  0.25000000  0.50000000       0.063
   0.25000000  0.25000000  0.50000000       0.063
   0.50000000  0.25000000  0.50000000       0.063
  -0.25000000  0.25000000  0.50000000       0.063
   0.00000000  0.50000000  0.50000000       0.031
   0.25000000  0.50000000  0.50000000       0.063
   0.50000000  0.50000000  0.50000000       0.031
 
 position of ions in fractional coordinates (direct lattice) 
   0.34950300  0.33577500  0.42368300
   0.33824100  0.34010400  0.92635800
   0.65049700  0.66422500  0.57631700
   0.66175900  0.65989600  0.07364200
   0.65538600  0.14438700  0.57792500
   0.65596600  0.14863000  0.07682100
   0.65539000  0.65893100  0.32189200
   0.65751500  0.65649000  0.82501600
   0.14551500  0.65844200  0.57833900
   0.14820700  0.65776700  0.07719600
   0.34461400  0.85561300  0.42207500
   0.34403400  0.85137000  0.92317900
   0.34461000  0.34106900  0.67810800
   0.34248500  0.34351000  0.17498400
   0.85448500  0.34155800  0.42166100
   0.85179300  0.34223300  0.92280400
   0.09738900  0.09612100  0.29854400
   0.09629500  0.09549200  0.79907400
   0.90261100  0.90387900  0.70145600
   0.90370500  0.90450800  0.20092600
   0.28481600  0.71454500  0.75087100
   0.28518400  0.71434200  0.24949600
   0.99914700  0.28615100  0.60787000
   0.99934100  0.28327000  0.10729000
   0.71658100  0.99931400  0.39157100
   0.71284300  0.00114600  0.89314600
   0.00085300  0.71384900  0.39213000
   0.00065900  0.71673000  0.89271000
   0.28341900  0.00068600  0.60842900
   0.28715700  0.99885400  0.10685400
   0.71518400  0.28545500  0.24912900
   0.71481600  0.28565800  0.75050400
   0.00000000  0.00000000  0.50000000
   0.00000000  0.00000000  0.00000000
   0.49954100  0.99847500  0.75061500
   0.50045900  0.00152500  0.24938500
   0.99833900  0.50072500  0.24830800
   0.00166100  0.49927500  0.75169200
   0.50001600  0.49912100  0.24897500
   0.49998400  0.50087900  0.75102500
   0.00000000  0.50000000  0.50000000
 
 position of ions in cartesian coordinates  (Angst):
   3.11056771  2.68830042  5.40312507
   3.77783503  3.34131054 11.81361569
   5.50616629  4.99236358  7.34962893
   4.83889897  4.33935346  0.93913831
   5.17158807  1.64815106  7.37013536
   4.44388172  1.05227290  0.97967932
   5.16103494  4.64187411  4.10500949
   5.91040558  5.25186394 10.52122609
   2.25177202  4.95765287  7.37541500
   1.53412911  4.33006890  0.98446160
   3.44514593  6.03251294  5.38261864
   4.17285228  6.62839110 11.77307468
   3.45569906  3.03878989  8.64774451
   2.70632842  2.42880006  2.23152791
   6.36496198  2.72301113  5.37733900
   7.08260489  3.35059510 11.76829240
   1.13310206  0.99001343  3.80725819
   1.85921716  1.60844117 10.19039415
   7.48363194  6.69065057  8.94549581
   6.75751684  6.07222283  2.56235985
   3.44183117  5.53335634  9.57567315
   2.70921078  4.90852213  3.18176111
   7.53057239  2.59793069  7.75201657
   6.79609823  1.95684680  1.36824298
   5.89861744  6.91958460  4.99360864
   5.90223186  1.11812446 11.39007122
   1.08616161  5.08273331  5.00073743
   1.82063577  5.72381720 11.38451102
   2.71811656  0.76107940  7.75914536
   2.71450214  6.56253954  1.36268278
   5.17490283  2.14730766  3.17708085
   5.90752322  2.77214187  9.57099289
   0.73283200  0.62181750  6.37637700
   0.00000000  0.00000000  0.00000000
   5.02601802  7.36070362  9.57240844
   3.59071598  0.31996038  3.18034556
   7.15044773  3.53198587  3.16661084
   1.46628627  4.14867813  9.58614316
   3.93992879  3.52249038  3.17511693
   4.67680521  4.15817362  9.57763707
   1.08720350  3.84033200  6.37637700
 


--------------------------------------------------------------------------------------------------------


 k-point   1 :   0.0000 0.0000 0.0000  plane waves:   14139
 k-point   2 :   0.2500 0.0000 0.0000  plane waves:   14229
 k-point   3 :   0.5000 0.0000 0.0000  plane waves:   14230
 k-point   4 :   0.0000 0.2500 0.0000  plane waves:   14229
 k-point   5 :   0.2500 0.2500 0.0000  plane waves:   14230
 k-point   6 :   0.5000 0.2500 0.0000  plane waves:   14251
 k-point   7 :  -0.2500 0.2500 0.0000  plane waves:   14245
 k-point   8 :   0.0000 0.5000 0.0000  plane waves:   14220
 k-point   9 :   0.2500 0.5000 0.0000  plane waves:   14250
 k-point  10 :   0.5000 0.5000 0.0000  plane waves:   14238
 k-point  11 :   0.0000 0.0000 0.5000  plane waves:   14204
 k-point  12 :   0.2500 0.0000 0.5000  plane waves:   14215
 k-point  13 :   0.5000 0.0000 0.5000  plane waves:   14264
 k-point  14 :   0.0000 0.2500 0.5000  plane waves:   14221
 k-point  15 :   0.2500 0.2500 0.5000  plane waves:   14241
 k-point  16 :   0.5000 0.2500 0.5000  plane waves:   14257
 k-point  17 :  -0.2500 0.2500 0.5000  plane waves:   14256
 k-point  18 :   0.0000 0.5000 0.5000  plane waves:   14240
 k-point  19 :   0.2500 0.5000 0.5000  plane waves:   14262
 k-point  20 :   0.5000 0.5000 0.5000  plane waves:   14258

 maximum and minimum number of plane-waves per node :     14264    14139

 maximum number of plane-waves:     14264
 maximum index in each direction: 
   IXMAX=   12   IYMAX=   12   IZMAX=   23
   IXMIN=  -12   IYMIN=  -12   IZMIN=  -24


 serial   3D FFT for wavefunctions
 parallel 3D FFT for charge:
    minimum data exchange during FFTs selected (reduces bandwidth)


 total amount of memory used by VASP MPI-rank0  1246685. kBytes
=======================================================================

   base      :      30000. kBytes
   nonlr-proj:      41628. kBytes
   fftplans  :      65646. kBytes
   grid      :      57028. kBytes
   one-center:       4030. kBytes
   wavefun   :    1048353. kBytes
 
     INWAV:  cpu time      0.0002: real time      0.0004
 Broyden mixing: mesh for mixing (old mesh)
   NGX = 23   NGY = 25   NGZ = 47
  (NGX  = 96   NGY  = 96   NGZ  =192)
  gives a total of  27025 points

 charge density for first step will be calculated from the start-wavefunctions


--------------------------------------------------------------------------------------------------------


 Maximum index for non-local projection operator          7325
 Maximum index for augmentation-charges         48046 (set IRDMAX)


--------------------------------------------------------------------------------------------------------


 initial charge from wavefunction
 First call to EWALD:  gamma=   0.219
 Maximum number of real-space cells 3x 3x 2
 Maximum number of reciprocal cells 2x 2x 4

    FEWALD:  cpu time      0.0023: real time      0.0023


--------------------------------------- Iteration      1(   1)  ---------------------------------------


    POTLOK:  cpu time      0.1312: real time      0.1553
    SETDIJ:  cpu time      5.8038: real time      5.8063
     EDDAV:  cpu time     24.4782: real time     24.5039
 BZINTS: Fermi energy:   22.630148;  560.000000 electrons
         Band energy:-0.627301E+05;  BLOECHL correction:   -0.206721
       DOS:  cpu time      0.2910: real time      0.2911
    --------------------------------------------
      LOOP:  cpu time     30.7042: real time     30.7566

 eigenvalue-minimisations  : 57200
 total energy-change (2. order) :-0.3233737E+05  (-0.6896733E+05)
 number of electron     560.0000005 magnetization      -0.0000000
 augmentation part       88.1019156 magnetization      -0.0115957

 Free energy of the ion-electron system (eV)
  ---------------------------------------------------
  alpha Z        PSCENC =      4632.75531892
  Ewald energy   TEWEN  =    -68085.23061016
  -Hartree energ DENC   =     -2322.58406957
  -exchange      EXHF   =         0.00000000
  -V(xc)+E(xc)   XCENC  =      1883.65452234
  PAW double counting   =    574727.03428296  -576626.97693668
  entropy T*S    EENTRO =         0.00000000
  eigenvalues    EBANDS =    -62730.07492842
  atomic energy  EATOM  =     96184.05515711
  Solvation  Ediel_sol  =         0.00000000
  ---------------------------------------------------
  free energy    TOTEN  =    -32337.36726350 eV

  energy without entropy =   -32337.36726350  energy(sigma->0) =   -32337.36726350


--------------------------------------------------------------------------------------------------------




--------------------------------------- Iteration      1(   2)  ---------------------------------------


     EDDAV:  cpu time     28.3787: real time     28.4013
 BZINTS: Fermi energy:  -31.429540;  560.000000 electrons
         Band energy:-0.693595E+05;  BLOECHL correction:   -0.251806
       DOS:  cpu time      0.3253: real time      0.3256
    --------------------------------------------
      LOOP:  cpu time     28.7041: real time     28.7269

 eigenvalue-minimisations  : 67160
 total energy-change (2. order) :-0.6629450E+04  (-0.6254659E+04)
 number of electron     560.0000005 magnetization      -0.0000000
 augmentation part       88.1019156 magnetization      -0.0115957

 Free energy of the ion-electron system (eV)
  ---------------------------------------------------
  alpha Z        PSCENC =      4632.75531892
  Ewald energy   TEWEN  =    -68085.23061016
  -Hartree energ DENC   =     -2322.58406957
  -exchange      EXHF   =         0.00000000
  -V(xc)+E(xc)   XCENC  =      1883.65452234
  PAW double counting   =    574727.03428296  -576626.97693668
  entropy T*S    EENTRO =         0.00000000
  eigenvalues    EBANDS =    -69359.52450563
  atomic energy  EATOM  =     96184.05515711
  Solvation  Ediel_sol  =         0.00000000
  ---------------------------------------------------
  free energy    TOTEN  =    -38966.81684071 eV

  energy without entropy =   -38966.81684071  energy(sigma->0) =   -38966.81684071


--------------------------------------------------------------------------------------------------------




--------------------------------------- Iteration      1(   3)  ---------------------------------------


     EDDAV:  cpu time     29.4836: real time     29.5115
 BZINTS: Fermi energy:  -75.873206;  560.000000 electrons
         Band energy:-0.710729E+05;  BLOECHL correction:   -3.326259
       DOS:  cpu time      0.3184: real time      0.3188
    --------------------------------------------
      LOOP:  cpu time     29.8020: real time     29.8303

 eigenvalue-minimisations  : 69760
 total energy-change (2. order) :-0.1713401E+04  (-0.1315609E+04)
 number of electron     560.0000005 magnetization      -0.0000000
 augmentation part       88.1019156 magnetization      -0.0115957

 Free energy of the ion-electron system (eV)
  ---------------------------------------------------
  alpha Z        PSCENC =      4632.75531892
  Ewald energy   TEWEN  =    -68085.23061016
  -Hartree energ DENC   =     -2322.58406957
  -exchange      EXHF   =         0.00000000
  -V(xc)+E(xc)   XCENC  =      1883.65452234
  PAW double counting   =    574727.03428296  -576626.97693668
  entropy T*S    EENTRO =         0.00000000
  eigenvalues    EBANDS =    -71072.92588210
  atomic energy  EATOM  =     96184.05515711
  Solvation  Ediel_sol  =         0.00000000
  ---------------------------------------------------
  free energy    TOTEN  =    -40680.21821718 eV

  energy without entropy =   -40680.21821718  energy(sigma->0) =   -40680.21821718


--------------------------------------------------------------------------------------------------------




--------------------------------------- Iteration      1(   4)  ---------------------------------------


     EDDAV:  cpu time     29.5077: real time     29.5329
 BZINTS: Fermi energy:  -79.769830;  560.000000 electrons
         Band energy:-0.716844E+05;  BLOECHL correction:   -0.081666
       DOS:  cpu time      0.3205: real time      0.3207
    --------------------------------------------
      LOOP:  cpu time     29.8282: real time     29.8536

 eigenvalue-minimisations  : 69760
 total energy-change (2. order) :-0.6114569E+03  (-0.4725441E+03)
 number of electron     560.0000005 magnetization      -0.0000000
 augmentation part       88.1019156 magnetization      -0.0115957

 Free energy of the ion-electron system (eV)
  ---------------------------------------------------
  alpha Z        PSCENC =      4632.75531892
  Ewald energy   TEWEN  =    -68085.23061016
  -Hartree energ DENC   =     -2322.58406957
  -exchange      EXHF   =         0.00000000
  -V(xc)+E(xc)   XCENC  =      1883.65452234
  PAW double counting   =    574727.03428296  -576626.97693668
  entropy T*S    EENTRO =         0.00000000
  eigenvalues    EBANDS =    -71684.38278810
  atomic energy  EATOM  =     96184.05515711
  Solvation  Ediel_sol  =         0.00000000
  ---------------------------------------------------
  free energy    TOTEN  =    -41291.67512318 eV

  energy without entropy =   -41291.67512318  energy(sigma->0) =   -41291.67512318


--------------------------------------------------------------------------------------------------------




--------------------------------------- Iteration      1(   5)  ---------------------------------------


     EDDAV:  cpu time     29.4323: real time     29.4529
 BZINTS: Fermi energy:  -80.759482;  560.000000 electrons
         Band energy:-0.718396E+05;  BLOECHL correction:   -0.000000
       DOS:  cpu time      0.1837: real time      0.1837
    CHARGE:  cpu time      0.6672: real time      0.6681
    MIXING:  cpu time      0.0053: real time      0.0054
    --------------------------------------------
      LOOP:  cpu time     30.2885: real time     30.3101

 eigenvalue-minimisations  : 69728
 total energy-change (2. order) :-0.1552587E+03  (-0.1414997E+03)
 number of electron     560.0000022 magnetization       0.0000000
 augmentation part      436.1860329 magnetization       0.0122587

 Broyden mixing:
  rms(total) = 0.19977E+03    rms(broyden)= 0.19977E+03
  rms(prec ) = 0.20886E+03
  weight for this iteration     100.00

 Free energy of the ion-electron system (eV)
  ---------------------------------------------------
  alpha Z        PSCENC =      4632.75531892
  Ewald energy   TEWEN  =    -68085.23061016
  -Hartree energ DENC   =     -2322.58406957
  -exchange      EXHF   =         0.00000000
  -V(xc)+E(xc)   XCENC  =      1883.65452234
  PAW double counting   =    574727.03428296  -576626.97693668
  entropy T*S    EENTRO =         0.00000000
  eigenvalues    EBANDS =    -71839.64153206
  atomic energy  EATOM  =     96184.05515711
  Solvation  Ediel_sol  =         0.00000000
  ---------------------------------------------------
  free energy    TOTEN  =    -41446.93386714 eV

  energy without entropy =   -41446.93386714  energy(sigma->0) =   -41446.93386714


--------------------------------------------------------------------------------------------------------




--------------------------------------- Iteration      1(   6)  ---------------------------------------


    POTLOK:  cpu time      0.0114: real time      0.0119
    SETDIJ:  cpu time      5.7924: real time      5.7945
     EDDAV:  cpu time     22.8733: real time     22.8868
 BZINTS: Fermi energy:  -16.001151;  560.000000 electrons
         Band energy:-0.257939E+05;  BLOECHL correction:   -0.001920
       DOS:  cpu time      0.2975: real time      0.2977
    CHARGE:  cpu time      0.6641: real time      0.6644
    MIXING:  cpu time      0.0071: real time      0.0111
    --------------------------------------------
      LOOP:  cpu time     29.6457: real time     29.6664

 eigenvalue-minimisations  : 52176
 total energy-change (2. order) : 0.3479390E+05  (-0.3565929E+04)
 number of electron     560.0000024 magnetization      -0.0052394
 augmentation part      450.9859049 magnetization       0.0118619

 Broyden mixing:
  rms(total) = 0.10266E+03    rms(broyden)= 0.10265E+03
  rms(prec ) = 0.10754E+03
  weight for this iteration     100.00

 eigenvalues of (default mixing * dielectric matrix)
  average eigenvalue GAMMA=   0.7000
  0.7000

 Free energy of the ion-electron system (eV)
  ---------------------------------------------------
  alpha Z        PSCENC =      4632.75531892
  Ewald energy   TEWEN  =    -68085.23061016
  -Hartree energ DENC   =    -12207.89621662
  -exchange      EXHF   =         0.00000000
  -V(xc)+E(xc)   XCENC  =      2351.06352980
  PAW double counting   =   3437722.87095428 -3441456.72092932
  entropy T*S    EENTRO =         0.00000000
  eigenvalues    EBANDS =    -25793.93384574
  atomic energy  EATOM  =     96184.05515711
  Solvation  Ediel_sol  =         0.00000000
  ---------------------------------------------------
  free energy    TOTEN  =     -6653.03664172 eV

  energy without entropy =    -6653.03664172  energy(sigma->0) =    -6653.03664172


--------------------------------------------------------------------------------------------------------




--------------------------------------- Iteration      1(   7)  ---------------------------------------


    POTLOK:  cpu time      0.0110: real time      0.0119
    SETDIJ:  cpu time      5.7949: real time      5.7981
     EDDAV:  cpu time     18.5129: real time     18.5239
 BZINTS: Fermi energy:    2.841905;  560.000000 electrons
         Band energy:-0.151424E+05;  BLOECHL correction:   -0.011480
       DOS:  cpu time      0.3047: real time      0.3049
    CHARGE:  cpu time      0.6609: real time      0.6612
    MIXING:  cpu time      0.0059: real time      0.0059
    --------------------------------------------
      LOOP:  cpu time     25.2903: real time     25.3059

 eigenvalue-minimisations  : 40592
 total energy-change (2. order) : 0.3277757E+04  (-0.1085971E+04)
 number of electron     560.0000017 magnetization       0.0245331
 augmentation part      335.5238827 magnetization      -0.1591136

 Broyden mixing:
  rms(total) = 0.11153E+03    rms(broyden)= 0.11153E+03
  rms(prec ) = 0.11595E+03
  weight for this iteration     100.00

 eigenvalues of (default mixing * dielectric matrix)
  average eigenvalue GAMMA=   0.5035
  0.5035  0.5035

 Free energy of the ion-electron system (eV)
  ---------------------------------------------------
  alpha Z        PSCENC =      4632.75531892
  Ewald energy   TEWEN  =    -68085.23061016
  -Hartree energ DENC   =    -18218.96370387
  -exchange      EXHF   =         0.00000000
  -V(xc)+E(xc)   XCENC  =      2599.26830731
  PAW double counting   =   2224579.51120351 -2229924.25628493
  entropy T*S    EENTRO =         0.00000000
  eigenvalues    EBANDS =    -15142.41896724
  atomic energy  EATOM  =     96184.05515711
  Solvation  Ediel_sol  =         0.00000000
  ---------------------------------------------------
  free energy    TOTEN  =     -3375.27957934 eV

  energy without entropy =    -3375.27957934  energy(sigma->0) =    -3375.27957934


--------------------------------------------------------------------------------------------------------




--------------------------------------- Iteration      1(   8)  ---------------------------------------


    POTLOK:  cpu time      0.0109: real time      0.0120
    SETDIJ:  cpu time      5.7977: real time      5.8010
     EDDAV:  cpu time     17.7704: real time     17.7784
 BZINTS: Fermi energy:    1.702375;  560.000000 electrons
         Band energy:-0.145308E+05;  BLOECHL correction:   -0.001146
       DOS:  cpu time      0.3006: real time      0.3011
    CHARGE:  cpu time      0.6619: real time      0.6622
    MIXING:  cpu time      0.0056: real time      0.0056
    --------------------------------------------
      LOOP:  cpu time     24.5472: real time     24.5604

 eigenvalue-minimisations  : 38564
 total energy-change (2. order) : 0.6680920E+03  (-0.2560397E+03)
 number of electron     560.0000018 magnetization       0.0111319
 augmentation part      360.5146371 magnetization      -0.1149362

 Broyden mixing:
  rms(total) = 0.10115E+03    rms(broyden)= 0.10115E+03
  rms(prec ) = 0.10369E+03
  weight for this iteration     100.00

 eigenvalues of (default mixing * dielectric matrix)
  average eigenvalue GAMMA=   0.4601
  0.4926  0.4926  0.3951

 Free energy of the ion-electron system (eV)
  ---------------------------------------------------
  alpha Z        PSCENC =      4632.75531892
  Ewald energy   TEWEN  =    -68085.23061016
  -Hartree energ DENC   =    -18561.18004642
  -exchange      EXHF   =         0.00000000
  -V(xc)+E(xc)   XCENC  =      2602.17710364
  PAW double counting   =   1867226.79197175 -1872175.79246278
  entropy T*S    EENTRO =         0.00000000
  eigenvalues    EBANDS =    -14530.76402020
  atomic energy  EATOM  =     96184.05515711
  Solvation  Ediel_sol  =         0.00000000
  ---------------------------------------------------
  free energy    TOTEN  =     -2707.18758814 eV

  energy without entropy =    -2707.18758814  energy(sigma->0) =    -2707.18758814


--------------------------------------------------------------------------------------------------------




--------------------------------------- Iteration      1(   9)  ---------------------------------------


    POTLOK:  cpu time      0.0108: real time      0.0119
    SETDIJ:  cpu time      5.7936: real time      5.7967
     EDDAV:  cpu time     17.5279: real time     17.5377
 BZINTS: Fermi energy:    1.572002;  560.000000 electrons
         Band energy:-0.141593E+05;  BLOECHL correction:   -0.015015
       DOS:  cpu time      0.3087: real time      0.3088
    CHARGE:  cpu time      0.6605: real time      0.6608
    MIXING:  cpu time      0.0059: real time      0.0059
    --------------------------------------------
      LOOP:  cpu time     24.3074: real time     24.3218

 eigenvalue-minimisations  : 37792
 total energy-change (2. order) : 0.2395563E+03  (-0.1476936E+03)
 number of electron     560.0000019 magnetization       0.0085964
 augmentation part      346.5782617 magnetization      -0.0908129

 Broyden mixing:
  rms(total) = 0.88486E+02    rms(broyden)= 0.88486E+02
  rms(prec ) = 0.92195E+02
  weight for this iteration     100.00

 eigenvalues of (default mixing * dielectric matrix)
  average eigenvalue GAMMA=   0.4217
  0.5565  0.5565  0.3919  0.1819

 Free energy of the ion-electron system (eV)
  ---------------------------------------------------
  alpha Z        PSCENC =      4632.75531892
  Ewald energy   TEWEN  =    -68085.23061016
  -Hartree energ DENC   =    -18520.17352435
  -exchange      EXHF   =         0.00000000
  -V(xc)+E(xc)   XCENC  =      2602.74448139
  PAW double counting   =   1630499.07629909 -1635621.59715713
  entropy T*S    EENTRO =         0.00000000
  eigenvalues    EBANDS =    -14159.26127015
  atomic energy  EATOM  =     96184.05515711
  Solvation  Ediel_sol  =         0.00000000
  ---------------------------------------------------
  free energy    TOTEN  =     -2467.63130526 eV

  energy without entropy =    -2467.63130526  energy(sigma->0) =    -2467.63130526


--------------------------------------------------------------------------------------------------------




--------------------------------------- Iteration      1(  10)  ---------------------------------------


    POTLOK:  cpu time      0.0112: real time      0.0122
    SETDIJ:  cpu time      5.7872: real time      5.7900
     EDDAV:  cpu time     18.8328: real time     18.8540
 BZINTS: Fermi energy:    1.403169;  560.000000 electrons
         Band energy:-0.135123E+05;  BLOECHL correction:   -0.020161
       DOS:  cpu time      0.2817: real time      0.2817
    CHARGE:  cpu time      0.6652: real time      0.6655
    MIXING:  cpu time      0.0057: real time      0.0057
    --------------------------------------------
      LOOP:  cpu time     25.5839: real time     25.6091

 eigenvalue-minimisations  : 41208
 total energy-change (2. order) : 0.4419434E+03  (-0.6059054E+02)
 number of electron     560.0000018 magnetization       0.0072300
 augmentation part      345.9764954 magnetization      -0.0359334

 Broyden mixing:
  rms(total) = 0.85228E+02    rms(broyden)= 0.85228E+02
  rms(prec ) = 0.88417E+02
  weight for this iteration     100.00

 eigenvalues of (default mixing * dielectric matrix)
  average eigenvalue GAMMA=   0.3618
  0.5503  0.5503  0.3543  0.1770  0.1770

 Free energy of the ion-electron system (eV)
  ---------------------------------------------------
  alpha Z        PSCENC =      4632.75531892
  Ewald energy   TEWEN  =    -68085.23061016
  -Hartree energ DENC   =    -18883.26465912
  -exchange      EXHF   =         0.00000000
  -V(xc)+E(xc)   XCENC  =      2613.30845734
  PAW double counting   =   1463578.85413723 -1468553.86091150
  entropy T*S    EENTRO =         0.00000000
  eigenvalues    EBANDS =    -13512.30474702
  atomic energy  EATOM  =     96184.05515711
  Solvation  Ediel_sol  =         0.00000000
  ---------------------------------------------------
  free energy    TOTEN  =     -2025.68785720 eV

  energy without entropy =    -2025.68785720  energy(sigma->0) =    -2025.68785720


--------------------------------------------------------------------------------------------------------




--------------------------------------- Iteration      1(  11)  ---------------------------------------


    POTLOK:  cpu time      0.0106: real time      0.0116
    SETDIJ:  cpu time      5.7720: real time      5.7735
     EDDAV:  cpu time     18.8828: real time     18.8956
 BZINTS: Fermi energy:    1.809365;  560.000000 electrons
         Band energy:-0.132034E+05;  BLOECHL correction:   -0.008462
       DOS:  cpu time      0.3058: real time      0.3059
    CHARGE:  cpu time      0.6606: real time      0.6608
    MIXING:  cpu time      0.0048: real time      0.0048
    --------------------------------------------
      LOOP:  cpu time     25.6366: real time     25.6522

 eigenvalue-minimisations  : 41616
 total energy-change (2. order) : 0.2915474E+03  (-0.1183457E+02)
 number of electron     560.0000018 magnetization      -0.0085879
 augmentation part      341.5647606 magnetization      -0.0250297

 Broyden mixing:
  rms(total) = 0.85902E+02    rms(broyden)= 0.85902E+02
  rms(prec ) = 0.88688E+02
  weight for this iteration     100.00

 eigenvalues of (default mixing * dielectric matrix)
  average eigenvalue GAMMA=   0.4244
  0.6654  0.6654  0.3856  0.3614  0.3614  0.1072

 Free energy of the ion-electron system (eV)
  ---------------------------------------------------
  alpha Z        PSCENC =      4632.75531892
  Ewald energy   TEWEN  =    -68085.23061016
  -Hartree energ DENC   =    -18967.30958725
  -exchange      EXHF   =         0.00000000
  -V(xc)+E(xc)   XCENC  =      2615.29010953
  PAW double counting   =   1425409.11255071 -1430319.37774256
  entropy T*S    EENTRO =         0.00000000
  eigenvalues    EBANDS =    -13203.43568406
  atomic energy  EATOM  =     96184.05515711
  Solvation  Ediel_sol  =         0.00000000
  ---------------------------------------------------
  free energy    TOTEN  =     -1734.14048775 eV

  energy without entropy =    -1734.14048775  energy(sigma->0) =    -1734.14048775


--------------------------------------------------------------------------------------------------------




--------------------------------------- Iteration      1(  12)  ---------------------------------------


    POTLOK:  cpu time      0.0109: real time      0.0121
    SETDIJ:  cpu time      5.7764: real time      5.7781
     EDDAV:  cpu time     19.1064: real time     19.1176
 BZINTS: Fermi energy:    0.019839;  560.000000 electrons
         Band energy:-0.131995E+05;  BLOECHL correction:   -0.003261
       DOS:  cpu time      0.3042: real time      0.3045
    CHARGE:  cpu time      0.6617: real time      0.6622
    MIXING:  cpu time      0.0052: real time      0.0052
    --------------------------------------------
      LOOP:  cpu time     25.8648: real time     25.8799

 eigenvalue-minimisations  : 42016
 total energy-change (2. order) :-0.3981287E+01  (-0.8679047E+01)
 number of electron     560.0000020 magnetization      -0.0195877
 augmentation part      368.7421767 magnetization      -0.0235955

 Broyden mixing:
  rms(total) = 0.82077E+02    rms(broyden)= 0.82077E+02
  rms(prec ) = 0.84658E+02
  weight for this iteration     100.00

 eigenvalues of (default mixing * dielectric matrix)
  average eigenvalue GAMMA=   0.4884
  0.9226  0.9226  0.4258  0.4258  0.3108  0.3108  0.1004

 Free energy of the ion-electron system (eV)
  ---------------------------------------------------
  alpha Z        PSCENC =      4632.75531892
  Ewald energy   TEWEN  =    -68085.23061016
  -Hartree energ DENC   =    -19213.18120303
  -exchange      EXHF   =         0.00000000
  -V(xc)+E(xc)   XCENC  =      2618.97104295
  PAW double counting   =   1293622.23518399 -1298298.18208858
  entropy T*S    EENTRO =         0.00000000
  eigenvalues    EBANDS =    -13199.54457552
  atomic energy  EATOM  =     96184.05515711
  Solvation  Ediel_sol  =         0.00000000
  ---------------------------------------------------
  free energy    TOTEN  =     -1738.12177430 eV

  energy without entropy =    -1738.12177430  energy(sigma->0) =    -1738.12177430


--------------------------------------------------------------------------------------------------------




--------------------------------------- Iteration      1(  13)  ---------------------------------------


    POTLOK:  cpu time      0.0108: real time      0.0117
    SETDIJ:  cpu time      5.8065: real time      5.8106
     EDDAV:  cpu time     22.9642: real time     22.9780
 BZINTS: Fermi energy:    2.883479;  560.000000 electrons
         Band energy:-0.133114E+05;  BLOECHL correction:   -0.013440
       DOS:  cpu time      0.3159: real time      0.3160
    CHARGE:  cpu time      0.6605: real time      0.6610
    MIXING:  cpu time      0.0071: real time      0.0071
    --------------------------------------------
      LOOP:  cpu time     29.7650: real time     29.7843

 eigenvalue-minimisations  : 52704
 total energy-change (2. order) :-0.8265398E+03  (-0.3058603E+03)
 number of electron     560.0000017 magnetization      -0.0447264
 augmentation part      349.0208682 magnetization      -0.0091353

 Broyden mixing:
  rms(total) = 0.65561E+02    rms(broyden)= 0.65561E+02
  rms(prec ) = 0.70076E+02
  weight for this iteration     100.00

 eigenvalues of (default mixing * dielectric matrix)
  average eigenvalue GAMMA=   0.5695
  1.2371  1.2371  0.5223  0.5223  0.3828  0.3828  0.1685  0.1032

 Free energy of the ion-electron system (eV)
  ---------------------------------------------------
  alpha Z        PSCENC =      4632.75531892
  Ewald energy   TEWEN  =    -68085.23061016
  -Hartree energ DENC   =    -19751.12643957
  -exchange      EXHF   =         0.00000000
  -V(xc)+E(xc)   XCENC  =      2640.31726494
  PAW double counting   =   1074686.42226929 -1079560.48280908
  entropy T*S    EENTRO =         0.00000000
  eigenvalues    EBANDS =    -13311.37168172
  atomic energy  EATOM  =     96184.05515711
  Solvation  Ediel_sol  =         0.00000000
  ---------------------------------------------------
  free energy    TOTEN  =     -2564.66153027 eV

  energy without entropy =    -2564.66153027  energy(sigma->0) =    -2564.66153027


--------------------------------------------------------------------------------------------------------




--------------------------------------- Iteration      1(  14)  ---------------------------------------


    POTLOK:  cpu time      0.0112: real time      0.0116
    SETDIJ:  cpu time      5.7900: real time      5.7956
     EDDAV:  cpu time     25.1685: real time     25.1924
 BZINTS: Fermi energy:    8.507645;  560.000000 electrons
         Band energy:-0.120422E+05;  BLOECHL correction:   -0.017406
       DOS:  cpu time      0.3015: real time      0.3016
    CHARGE:  cpu time      0.6611: real time      0.6616
    MIXING:  cpu time      0.0063: real time      0.0063
    --------------------------------------------
      LOOP:  cpu time     31.9386: real time     31.9691

 eigenvalue-minimisations  : 58756
 total energy-change (2. order) :-0.1178988E+04  (-0.1093508E+03)
 number of electron     560.0000016 magnetization      -0.0373827
 augmentation part      316.5146314 magnetization      -0.0447301

 Broyden mixing:
  rms(total) = 0.51332E+02    rms(broyden)= 0.51332E+02
  rms(prec ) = 0.58196E+02
  weight for this iteration     100.00

 eigenvalues of (default mixing * dielectric matrix)
  average eigenvalue GAMMA=   0.5758
  1.3256  1.3256  0.5716  0.5716  0.4071  0.4071  0.2355  0.2355  0.1029

 Free energy of the ion-electron system (eV)
  ---------------------------------------------------
  alpha Z        PSCENC =      4632.75531892
  Ewald energy   TEWEN  =    -68085.23061016
  -Hartree energ DENC   =    -21925.79686466
  -exchange      EXHF   =         0.00000000
  -V(xc)+E(xc)   XCENC  =      2717.02247266
  PAW double counting   =    699987.98960166  -705212.20803891
  entropy T*S    EENTRO =         0.00000000
  eigenvalues    EBANDS =    -12042.23693323
  atomic energy  EATOM  =     96184.05515711
  Solvation  Ediel_sol  =         0.00000000
  ---------------------------------------------------
  free energy    TOTEN  =     -3743.64989659 eV

  energy without entropy =    -3743.64989659  energy(sigma->0) =    -3743.64989659


--------------------------------------------------------------------------------------------------------




--------------------------------------- Iteration      1(  15)  ---------------------------------------


    POTLOK:  cpu time      0.0110: real time      0.0120
    SETDIJ:  cpu time      5.7729: real time      5.7753
     EDDAV:  cpu time     24.1848: real time     24.2002
 BZINTS: Fermi energy:    8.429310;  560.000000 electrons
         Band energy:-0.116649E+05;  BLOECHL correction:   -0.015813
       DOS:  cpu time      0.2964: real time      0.2965
    CHARGE:  cpu time      0.6608: real time      0.6612
[...]
  288          m_sumb_d                              0.000205                          2   4
  289        strnlr                                8.413901                            1   3
  290          rspher_all                            0.322055                          9   4
  291          phaser                                1.329890                        180   4
  292          rpro_isp                              6.742987                        180   4
  293            fftwav_mpi                            1.246882                    39240   5
  294              fftwav                                1.199079                  39240   6
  295                fft3d                                 0.260721                39240   7
  296            rpromu_acc                            3.493466                    10080   5
  297          m_sumb_d                              0.000014                          1   4
  298        fft3d_mpi                             0.003928                           22   3
  299          fftbrc_mpi                            0.003131                         22   4
  300            fftbas_plan_mpi                       0.003113                       22   5
  301              map_forward                           0.001188                     20   6
  302                map_gather                            0.000247                   10   7
  303                m_alltoallv_z                         0.000141                   10   7
  304                map_scatter                           0.000641                   10   7
  305              map_backward                          0.001296                     24   6
  306                map_gather                            0.000305                   12   7
  307                m_alltoallv_z                         0.000141                   12   7
  308                map_scatter                           0.000655                   12   7
  309        m_sumb_d                              0.000026                            5   3
  310        forhar                                0.003579                            2   3
  311          m_sumb_d                              0.000047                          2   4
  312        strehar                               0.002149                            1   3
  313          m_sumb_d                              0.000007                          1   4
  314        chggra                                0.000902                            1   3
  315          fft3d_mpi                             0.000536                          3   4
  316            fftbrc_mpi                            0.000425                        3   5
  317              fftbas_plan_mpi                       0.000422                      3   6
  318                map_forward                           0.000237                    4   7
  319                  map_gather                            0.000050                  2   8
  320                  m_alltoallv_z                         0.000028                  2   8
  321                  map_scatter                           0.000128                  2   8
  322                map_backward                          0.000098                    2   7
  323                  map_gather                            0.000025                  1   8
  324                  m_alltoallv_z                         0.000012                  1   8
  325                  map_scatter                           0.000045                  1   8
  326          m_sumb_d                              0.000009                          2   4
  327          pothar                                0.000094                          1   4
  328            m_sumb_d                              0.000017                        1   5
  329        brmix                                 0.015619                            1   3
  330          m_sumb_d                              0.000035                          6   4
  331          brpre                                 0.000043                          2   4
  332          setg0                                 0.001560                          1   4
  333          broyd                                 0.012063                          1   4
  334            brget                                 0.003258                      326   5
  335            brsav                                 0.001535                      163   5
  336            m_sumb_d                              0.000166                       47   5
  337        m_bcast_d                             0.000029                            2   3
  338      potlok                                0.053496                              2   2
  339        fft3d_mpi                             0.033100                           36   3
  340          fftbrc_mpi                            0.027344                         36   4
  341            fftbas_plan_mpi                       0.027319                       36   5
  342              map_forward                           0.008106                     40   6
  343                map_gather                            0.002442                   24   7
  344                m_alltoallv_z                         0.003098                   24   7
  345                map_scatter                           0.002364                   24   7
  346              map_backward                          0.007213                     32   6
  347                map_gather                            0.002118                   16   7
  348                m_alltoallv_z                         0.002855                   16   7
  349                map_scatter                           0.002034                   16   7
  350              dfftw_execute                         0.010273                     30   6
  351        m_sumb_d                              0.000027                            5   3
  352        pothar                                0.002421                            2   3
  353          m_sumb_d                              0.000202                          2   4
  354        m_bcast_d                             0.003695                            4   3
  355      potlok_metagga                        0.000000                              1   2
  356      set_dd_magatom                        0.000004                              1   2
  357      set_dd_paw                            5.579869                              1   2
  358        m_sumb_d                              0.494620                            7   3
  359      augmentation_charge                   0.215589                              1   2
  360        fft3d_mpi                             0.074657                            2   3
  361          fftbrc_mpi                            0.066292                          2   4
  362            fftbas_plan_mpi                       0.066290                        2   5
  363              dfftw_execute                         0.039979                      6   6
  364              map_backward                          0.026031                      4   6
  365                map_gather                            0.009301                    2   7
  366                m_alltoallv_z                         0.008638                    2   7
  367                map_scatter                           0.008083                    2   7
  368      fftwav_mpi                           21.271116                          13080   2
  369        fftwav                               21.254176                        13080   3
  370          fft3d                                19.721640                      13080   4
  371      densta                               20.984425                              1   2
 
 Flat profile
 ============
 
             routine name                   CPU           calls
 ---------------------------------------------------------------
 set_dd_paw                           5070.522449         998
 eddav                                4567.465277        1000
 lapack                               3649.733288     8140118
 raccmu_                              3354.341210     8140118
 m_sumb_d                             2480.265072    24541772
 redis_pw                             2049.412424    43976784
 m_alltoall_d                          807.095963    ********
 densta                                479.469568        1001
 eccp                                  468.096231     4360000
 orth1                                 406.390389    24420914
 redis_proj                            375.485404    55702392
 fft3d                                 375.052067    47263970
 fftwav                                295.967928    31178402
 phaser                                288.590859       40260
 hamiltmu                              249.685156     8140118
 racc0mu_acc                           237.878193     8140118
 w1_copy                               232.744438    48256704
 overl                                 231.647963    27811176
 m_bcast_z                             176.267028     8157558
 rpromu_acc                            175.943464     5954678
 ggemm                                 169.050469    10340118
 soft_charge                           164.923453         997
 setup_precond                         159.381368     4360000
 augmentation_charge                   139.658456         998
 setdij_                               136.256951        1024
 m_bcast_d                             133.406844    16282237
 overl_mu                              126.143719     8140118
 pw_charge                             107.580826     3297506
 dfftw_execute                          93.170857       24396
 kinhamil                               73.289616    16085568
 vhamil                                 73.140508    16085568
 depsum                                 71.208061         997
 fftext_mpi                             68.410720    16085568
 newband                                65.229123     8180118
 apply_precond                          64.156351    11725568
 fftwav_mpi                             41.165176    31178402
 total_time                             26.834203           1
 fft3d_mpi                              24.175225    16119647
 m_alltoallv_z                          20.698651       38089
 map_scatter                            18.979874       38089
 map_gather                             18.707721       38089
 set_charge                             15.150421         997
 init_acc                               11.039332           1
 broyd                                   7.984650         996
 w1_projall                              5.773176     5940118
 potlok                                  5.348919         998
 brmix                                   2.924849         996
 rpro_isp                                2.893158         260
 brget                                   2.460101      235955
 acc_init_cublas                         2.420711           1
 elmin                                   2.253692           1
 fftbas_plan_mpi                         1.761500       34079
 lincom                                  1.683112       40040
 truncate_high_frequency_w1              1.597684    20445568
 setg0                                   1.555597         998
 sphpro_fast                             1.460805           2
 acc_init_cusolver                       0.787962           1
 brsav                                   0.693287       68456
 rspher_all                              0.476434          14
 proall                                  0.227842           1
 map_backward                            0.215322       36062
 map_forward                             0.208753       32096
 orthch                                  0.171062           1
 fft_gq                                  0.119401         997
 acc_cufft_makeplan                      0.115474          19
 pothar                                  0.087439         999
 force_and_stress                        0.082500           1
 brpre                                   0.046128        1992
 choleski                                0.037952          40
 stufak                                  0.028343           1
 fftbrc_mpi                              0.020168       34079
 strnlr                                  0.018955           1
 fornlr                                  0.007565           1
 strkin                                  0.006976           1
 set_dd_magatom                          0.004518         998
 inisym                                  0.004243           1
 vectorpot                               0.004093         997
 forhar                                  0.003532           2
 strelo                                  0.002818           1
 strehar                                 0.002142           1
 forloc                                  0.001808           1
 rsp                                     0.001730           1
 fewald                                  0.000362           1
 brgrid                                  0.000291           1
 chggra                                  0.000263           1
 fordep                                  0.000236           1
 potlok_metagga                          0.000099         997
 rcp                                     0.000059           1
 posmap                                  0.000028           2
 crpa_reader                             0.000027           1
 acc_cufft_makeplans                     0.000010           3
 rotate_active_occupied_orbital          0.000000           1
 redis_pw_over_bands                     0.000000           1
 ---------------------------------------------------------------
  summed up times     27837.30807113647     
 
 Accumulative profile
 ====================
 
             routine name                   CPU           calls
 ---------------------------------------------------------------
 total_time                          27837.308071           1
 elmin                               27712.630793           1
 eddav                               20766.874205        1000
 set_dd_paw                           5562.959710         998
 hamiltmu                             4302.336237     8140118
 raccmu_                              3718.363122     8140118
 lapack                               3649.733288     8140118
 m_sumb_d                             2480.265072    24541772
 redis_pw                             2453.401269    43976784
 newband                              1037.105834     8180118
 m_alltoall_d                          807.095963    ********
 redis_proj                            778.592521    55702392
 set_charge                            693.370877         997
 fftwav_mpi                            597.585609    31178402
 fftwav                                556.420432    31178402
 densta                                479.469568        1001
 eccp                                  468.096231     4360000
 orth1                                 406.390389    24420914
 soft_charge                           388.852517         997
 fft3d                                 375.052067    47263970
 fft3d_mpi                             292.537634    16119647
 phaser                                288.590859       40260
 kinhamil                              261.147451    16085568
 racc0mu_acc                           237.878193     8140118
 w1_copy                               232.744438    48256704
 overl                                 231.647963    27811176
 setdij_                               225.405216        1024
 augmentation_charge                   215.543136         998
 fftext_mpi                            187.857834    16085568
 w1_projall                            177.006732     5940118
 m_bcast_z                             176.267028     8157558
 rpromu_acc                            175.943464     5954678
 ggemm                                 169.050469    10340118
 setup_precond                         159.381368     4360000
 fftbrc_mpi                            153.762845       34079
 fftbas_plan_mpi                       153.742677       34079
 m_bcast_d                             133.406844    16282237
 overl_mu                              126.143719     8140118
 pw_charge                             107.580826     3297506
 dfftw_execute                          93.170857       24396
 vhamil                                 73.140508    16085568
 depsum                                 71.677979         997
 apply_precond                          64.156351    11725568
 map_backward                           32.487790       36062
 map_forward                            26.322531       32096
 force_and_stress                       23.346646           1
 m_alltoallv_z                          20.698651       38089
 map_scatter                            18.979874       38089
 map_gather                             18.707721       38089
 brmix                                  15.966318         996
 broyd                                  11.334341         996
 init_acc                               11.039332           1
 potlok                                 10.500820         998
 rpro_isp                                9.429361         260
 strnlr                                  8.413901           1
 fft_gq                                  3.771076         997
 fornlr                                  2.810829           1
 brget                                   2.460101      235955
 acc_init_cublas                         2.420711           1
 sphpro_fast                             1.708745           2
 lincom                                  1.683112       40040
 truncate_high_frequency_w1              1.597684    20445568
 setg0                                   1.555597         998
 fordep                                  1.325671           1
 orthch                                  0.942080           1
 proall                                  0.809307           1
 acc_init_cusolver                       0.787962           1
 brsav                                   0.693287       68456
 rspher_all                              0.476434          14
 acc_cufft_makeplans                     0.115484           3
 acc_cufft_makeplan                      0.115474          19
 pothar                                  0.097247         999
 brpre                                   0.046128        1992
 choleski                                0.037952          40
 stufak                                  0.028343           1
 strkin                                  0.006984           1
 set_dd_magatom                          0.004518         998
 inisym                                  0.004271           1
 vectorpot                               0.004093         997
 forhar                                  0.003579           2
 strelo                                  0.003023           1
 forloc                                  0.002868           1
 fewald                                  0.002244           1
 strehar                                 0.002149           1
 rsp                                     0.001730           1
 chggra                                  0.000902           1
 brgrid                                  0.000291           1
 potlok_metagga                          0.000099         997
 rcp                                     0.000059           1
 posmap                                  0.000028           2
 crpa_reader                             0.000027           1
 rotate_active_occupied_orbital          0.000000           1
 redis_pw_over_bands                     0.000000           1
 ---------------------------------------------------------------
 
Profiling took 100.894491 48.535734  0.003223  0.003122 seconds
Profiling took  62.883587 seconds
