 vasp.6.3.2 27Jun22 (build Jul  3 2023 11:46:21) complex                         
 executed on    LinuxNV_CrayMPICH date 2024.05.14  19:35:41
 running on    4 total cores
 distrk:  each k-point on    4 cores,    1 groups
 distr:  one band on NCORE=   1 cores,    4 groups


--------------------------------------------------------------------------------------------------------


 INCAR:
   ADDGRID = True
   ALGO = Normal
   EDIFF = 0.0012
   ENCUT = 520.0
   IBRION = -1
   ICHARG = 0
   ISIF = 3
   ISMEAR = -5
   ISPIN = 2
   KPOINT_BSE = -1 0 0 0
   LAECHG = True
   LASPH = True
   LCHARG = True
   LELF = True
   LORBIT = 11
   LREAL = Auto
   LVHAR = True
   LWAVE = False
   MAGMOM = 4*7.0 4*5.0 16*0.6
   NUPDOWN = 10
   NELM = 1000
   NSW = 0
   PREC = accurate
   SIGMA = 0.05

 POTCAR:    PAW_PBE Gd 23Dec2003                  
 POTCAR:    PAW_PBE Mn_pv 02Aug2007               
 POTCAR:    PAW_PBE B 06Sep2000                   
 POTCAR:    PAW_PBE Gd 23Dec2003                  
   SHA256 =  58854b40b4643190560b0e2b62d2ab46bea96585f82c6231a0f4f44b8c3188dc Gd/POTCAR             
   COPYR  = (c) Copyright 23Dec2003 Georg Kresse                                                    
   COPYR  = This file is part of the software VASP. Any use, copying, and all other rights are regul
   COPYR  = If you do not have a valid VASP license, you may not use, copy or distribute this file. 
   VRHFIN =Gd : [core=Xe4]                                                                          
   LEXCH  = PE                                                                                      
   EATOM  =  3047.6032 eV,  223.9925 Ry                                                             
                                                                                                    
   TITEL  = PAW_PBE Gd 23Dec2003                                                                    
   LULTRA =        F    use ultrasoft PP ?                                                          
   IUNSCR =        1    unscreen: 0-lin 1-nonlin 2-no                                               
   RPACOR =    2.300    partial core radius                                                         
   POMASS =  157.250; ZVAL   =   18.000    mass and valenz                                          
   RCORE  =    2.800    outmost cutoff radius                                                       
   RWIGS  =    2.800; RWIGS  =    1.482    wigner-seitz radius (au A)                               
   ENMAX  =  256.472; ENMIN  =  192.354 eV                                                          
   RCLOC  =    2.316    cutoff for local pot                                                        
   LCOR   =        T    correct aug charges                                                         
   LPAW   =        T    paw PP                                                                      
   EAUG   =  537.243                                                                                
   DEXC   =    0.000                                                                                
   RMAX   =    2.857    core radius for proj-oper                                                   
   RAUG   =    1.300    factor for augmentation sphere                                              
   RDEP   =    2.921    radius for radial grids                                                     
   RDEPT  =    2.247    core radius for aug-charge                                                  
                                                                                                    
   Atomic configuration                                                                             
   14 entries                                                                                       
     n  l   j            E        occ.                                                              
     1  0  0.50    -50087.2354   2.0000                                                             
     2  0  0.50     -8269.2182   2.0000                                                             
     2  1  1.50     -7357.3672   6.0000                                                             
     3  0  0.50     -1833.2681   2.0000                                                             
     3  1  1.50     -1550.9376   6.0000                                                             
     3  2  2.50     -1178.7204  10.0000                                                             
     4  0  0.50      -369.2978   2.0000                                                             
     4  1  1.50      -276.2601   6.0000                                                             
     4  2  2.50      -147.6611  10.0000                                                             
     5  0  0.50       -49.7260   2.0000                                                             
     6  0  0.50        -4.1254   2.0000                                                             
     5  1  1.50       -27.2538   6.0000                                                             
     5  2  2.50        -2.5337   1.0000                                                             
     4  3  2.50        -8.7140   7.0000                                                             
   Description                                                                                      
     l       E           TYP  RCUT    TYP  RCUT                                                     
     0    -49.7259557     23  2.400                                                                 
     0     -4.1254107     23  2.400                                                                 
     1    -27.2537518     23  2.400                                                                 
     1     20.4087390     23  2.400                                                                 
     2     -2.5337329     23  2.500                                                                 
     2     13.6058260     23  2.500                                                                 
     3     -8.7140389     23  2.800                                                                 
     3     -9.5240782     23  2.800                                                                 
  local pseudopotential read in
  partial core-charges read in
  partial kinetic energy density read in
  atomic valenz-charges read in
  non local Contribution for L=            0  read in
    real space projection operators read in
  non local Contribution for L=            0  read in
    real space projection operators read in
  non local Contribution for L=            1  read in
    real space projection operators read in
  non local Contribution for L=            1  read in
    real space projection operators read in
  non local Contribution for L=            2  read in
    real space projection operators read in
  non local Contribution for L=            2  read in
    real space projection operators read in
  non local Contribution for L=            3  read in
    real space projection operators read in
  non local Contribution for L=            3  read in
    real space projection operators read in
    PAW grid and wavefunctions read in
 
   number of l-projection  operators is LMAX  =            8
   number of lm-projection operators is LMMAX =           32
 
 POTCAR:    PAW_PBE Mn_pv 02Aug2007               
   SHA256 =  c79df11ab18a0e3347296df6ded47bb5f18b2e4fbd621d0b5280d2eae24c30a0 Mn_pv/POTCAR          
   COPYR  = (c) Copyright 02Aug2007 Georg Kresse                                                    
   COPYR  = This file is part of the software VASP. Any use, copying, and all other rights are regul
   COPYR  = If you do not have a valid VASP license, you may not use, copy or distribute this file. 
   VRHFIN =Mn: 3p4s3d                                                                               
   LEXCH  = PE                                                                                      
   EATOM  =  2025.2664 eV,  148.8529 Ry                                                             
                                                                                                    
   TITEL  = PAW_PBE Mn_pv 02Aug2007                                                                 
   LULTRA =        F    use ultrasoft PP ?                                                          
   IUNSCR =        1    unscreen: 0-lin 1-nonlin 2-no                                               
   RPACOR =    2.080    partial core radius                                                         
   POMASS =   54.938; ZVAL   =   13.000    mass and valenz                                          
   RCORE  =    2.300    outmost cutoff radius                                                       
   RWIGS  =    2.500; RWIGS  =    1.323    wigner-seitz radius (au A)                               
   ENMAX  =  269.864; ENMIN  =  202.398 eV                                                          
   ICORE  =        3    local potential                                                             
   LCOR   =        T    correct aug charges                                                         
   LPAW   =        T    paw PP                                                                      
   EAUG   =  569.085                                                                                
   DEXC   =    0.000                                                                                
   RMAX   =    2.343    core radius for proj-oper                                                   
   RAUG   =    1.300    factor for augmentation sphere                                              
   RDEP   =    2.338    radius for radial grids                                                     
   RDEPT  =    1.798    core radius for aug-charge                                                  
                                                                                                    
   Atomic configuration                                                                             
    8 entries                                                                                       
     n  l   j            E        occ.                                                              
     1  0  0.50     -6424.8287   2.0000                                                             
     2  0  0.50      -739.1154   2.0000                                                             
     2  1  1.50      -625.3949   6.0000                                                             
     3  0  0.50       -81.6100   2.0000                                                             
     3  1  1.50       -50.4667   6.0000                                                             
     3  2  2.50        -3.3745   6.0000                                                             
     4  0  0.50        -4.1331   1.0000                                                             
     4  3  2.50        -1.3606   0.0000                                                             
   Description                                                                                      
     l       E           TYP  RCUT    TYP  RCUT                                                     
     1    -50.4666628     23  2.000                                                                 
     1     -1.3605826     23  2.000                                                                 
     2     -3.3744729     23  2.300                                                                 
     2     -4.7350555     23  2.300                                                                 
     0     -4.1331431     23  2.300                                                                 
     0      7.6656591     23  2.300                                                                 
     3      9.5240782     23  2.300                                                                 
  local pseudopotential read in
  partial core-charges read in
  partial kinetic energy density read in
  atomic valenz-charges read in
  non local Contribution for L=            1  read in
    real space projection operators read in
  non local Contribution for L=            1  read in
    real space projection operators read in
  non local Contribution for L=            2  read in
    real space projection operators read in
  non local Contribution for L=            2  read in
    real space projection operators read in
  non local Contribution for L=            0  read in
    real space projection operators read in
  non local Contribution for L=            0  read in
    real space projection operators read in
    PAW grid and wavefunctions read in
 
   number of l-projection  operators is LMAX  =            6
   number of lm-projection operators is LMMAX =           18
 
 POTCAR:    PAW_PBE B 06Sep2000                   
   SHA256 =  a32ced30f5ae56fd4d10b4325ff17eb3e4e38ee0f4288bc219fb012fddfa6e97 B/POTCAR              
   COPYR  = (c) Copyright 06Sep2000 Georg Kresse                                                    
   COPYR  = This file is part of the software VASP. Any use, copying, and all other rights are regul
   COPYR  = If you do not have a valid VASP license, you may not use, copy or distribute this file. 
   VRHFIN =B: s2p1                                                                                  
   LEXCH  = PE                                                                                      
   EATOM  =    71.1703 eV,    5.2309 Ry                                                             
                                                                                                    
   TITEL  = PAW_PBE B 06Sep2000                                                                     
   LULTRA =        F    use ultrasoft PP ?                                                          
   IUNSCR =        1    unscreen: 0-lin 1-nonlin 2-no                                               
   RPACOR =    1.200    partial core radius                                                         
   POMASS =   10.811; ZVAL   =    3.000    mass and valenz                                          
   RCORE  =    1.700    outmost cutoff radius                                                       
   RWIGS  =    1.710; RWIGS  =    0.905    wigner-seitz radius (au A)                               
   ENMAX  =  318.614; ENMIN  =  238.960 eV                                                          
   ICORE  =        2    local potential                                                             
   LCOR   =        T    correct aug charges                                                         
   LPAW   =        T    paw PP                                                                      
   EAUG   =  535.514                                                                                
   DEXC   =    0.000                                                                                
   RMAX   =    1.732    core radius for proj-oper                                                   
   RAUG   =    1.300    factor for augmentation sphere                                              
   RDEP   =    1.757    radius for radial grids                                                     
   RDEPT  =    1.436    core radius for aug-charge                                                  
                                                                                                    
   Atomic configuration                                                                             
    4 entries                                                                                       
     n  l   j            E        occ.                                                              
     1  0  0.50      -180.5896   2.0000                                                             
     2  0  0.50        -9.4431   2.0000                                                             
     2  1  0.50        -3.6068   1.0000                                                             
     3  2  1.50        -4.0817   0.0000                                                             
   Description                                                                                      
     l       E           TYP  RCUT    TYP  RCUT                                                     
     0     -9.4430752     23  1.500                                                                 
     0      0.8675899     23  1.500                                                                 
     1     -3.6067955     23  1.700                                                                 
     1      6.1086146     23  1.700                                                                 
     2     -4.0817478      7  1.700                                                                 
  local pseudopotential read in
  partial core-charges read in
  partial kinetic energy density read in
  atomic valenz-charges read in
  non local Contribution for L=            0  read in
    real space projection operators read in
  non local Contribution for L=            0  read in
    real space projection operators read in
  non local Contribution for L=            1  read in
    real space projection operators read in
  non local Contribution for L=            1  read in
    real space projection operators read in
    PAW grid and wavefunctions read in
 
   number of l-projection  operators is LMAX  =            4
   number of lm-projection operators is LMMAX =            8
 
 Optimization of the real space projectors (new method)

 maximal supplied QI-value         = 13.42
 optimisation between [QCUT,QGAM] = [ 11.67, 23.35] = [ 38.16,152.62] Ry 
 Optimized for a Real-space Cutoff    1.63 Angstroem

   l    n(q)    QCUT    max X(q) W(low)/X(q) W(high)/X(q)  e(spline) 
   0     11    11.673    10.501    0.14E-04    0.17E-05    0.21E-07
   0     11    11.673     9.148    0.21E-04    0.32E-05    0.45E-07
   1     11    11.673     4.035    0.33E-05    0.11E-04    0.84E-07
   1     11    11.673     4.388    0.11E-04    0.47E-04    0.34E-06
   2     10    11.673    20.656    0.12E-04    0.28E-04    0.54E-06
   2     10    11.673    12.651    0.11E-04    0.26E-04    0.51E-06
   3     10    11.673    61.921    0.19E-03    0.22E-03    0.23E-06
   3     10    11.673    48.328    0.20E-03    0.23E-03    0.23E-06
 Optimization of the real space projectors (new method)

 maximal supplied QI-value         = 16.25
 optimisation between [QCUT,QGAM] = [ 11.54, 23.24] = [ 37.28,151.24] Ry 
 Optimized for a Real-space Cutoff    1.45 Angstroem

   l    n(q)    QCUT    max X(q) W(low)/X(q) W(high)/X(q)  e(spline) 
   1     10    11.539     3.658    0.56E-04    0.12E-03    0.13E-06
   1     10    11.539     5.612    0.11E-03    0.23E-03    0.24E-06
   2      9    11.539    55.373    0.45E-04    0.92E-04    0.22E-06
   2      9    11.539    50.863    0.47E-04    0.95E-04    0.22E-06
   0     10    11.539    79.536    0.46E-04    0.27E-04    0.11E-06
   0     10    11.539    38.668    0.38E-04    0.25E-04    0.10E-06
 Optimization of the real space projectors (new method)

 maximal supplied QI-value         = 22.11
 optimisation between [QCUT,QGAM] = [ 11.50, 23.22] = [ 37.02,150.92] Ry 
 Optimized for a Real-space Cutoff    1.21 Angstroem

   l    n(q)    QCUT    max X(q) W(low)/X(q) W(high)/X(q)  e(spline) 
   0      8    11.497    53.033    0.18E-03    0.30E-03    0.10E-06
   0      8    11.497    34.740    0.17E-03    0.29E-03    0.10E-06
   1      8    11.497    30.949    0.20E-03    0.12E-03    0.21E-06
   1      8    11.497    19.518    0.18E-03    0.11E-03    0.19E-06
  PAW_PBE Gd 23Dec2003                  :
 energy of atom  1       EATOM=-3047.6032
 kinetic energy error for atom=    0.0019 (will be added to EATOM!!)
  PAW_PBE Mn_pv 02Aug2007               :
 energy of atom  2       EATOM=-2025.2664
 kinetic energy error for atom=    0.0058 (will be added to EATOM!!)
  PAW_PBE B 06Sep2000                   :
 energy of atom  3       EATOM=  -71.1703
 kinetic energy error for atom=    0.0011 (will be added to EATOM!!)
 
 
 POSCAR: Gd4 Mn4 B16
  positions in direct lattice
  No initial velocities read in
 exchange correlation table for  LEXCH =        8
   RHO(1)=    0.500       N(1)  =     2000
   RHO(2)=  100.500       N(2)  =     4000

 VTST: version 4.2, (08/11/21)

 CHAIN: initializing optimizer
 
 OPT: Using VASP Dynamics algorithm
 CHAIN: Read ICHAIN             0
 
 POSCAR: Gd4 Mn4 B16
  positions in direct lattice
  No initial velocities read in
 


--------------------------------------------------------------------------------------------------------


 ion  position               nearest neighbor table
   1  0.000  0.874  0.850-  12 2.61  12 2.61  13 2.66  13 2.66  19 2.69  19 2.69  23 2.70  23 2.70
                            21 2.71  21 2.71   9 2.72   9 2.72  10 2.73  10 2.73   8 3.05   5 3.05
   2  0.000  0.374  0.650-  18 2.61  18 2.61  10 2.66  10 2.66  16 2.69  16 2.69   9 2.70   9 2.70
                            17 2.71  17 2.71  23 2.72  23 2.72  13 2.73  13 2.73   5 3.05   8 3.05
   3  0.000  0.126  0.150-  20 2.61  20 2.61  14 2.66  14 2.66  21 2.69  21 2.69  11 2.70  11 2.70
                            19 2.71  19 2.71  24 2.72  24 2.72  15 2.73  15 2.73   7 3.05   6 3.05
   4  0.000  0.626  0.350-  22 2.61  22 2.61  15 2.66  15 2.66  17 2.69  17 2.69  24 2.70  24 2.70
                            16 2.71  16 2.71  11 2.72  11 2.72  14 2.73  14 2.73   6 3.05   7 3.05
   5  0.000  0.372  0.916-  23 2.25  23 2.25  12 2.27  12 2.27  20 2.28  20 2.28  19 2.28  19 2.28
                            10 2.29  10 2.29   6 2.46   2 3.05   1 3.05   3 3.06   1 3.08
   6  0.000  0.628  0.084-  11 2.25  11 2.25  20 2.27  20 2.27  12 2.28  12 2.28  21 2.28  21 2.28
                            15 2.29  15 2.29   5 2.46   4 3.05   3 3.05   1 3.06   3 3.08
   7  0.000  0.128  0.416-  24 2.25  24 2.25  22 2.27  22 2.27  18 2.28  18 2.28  17 2.28  17 2.28
                            14 2.29  14 2.29   8 2.46   3 3.05   4 3.05   2 3.06   4 3.08
   8  0.000  0.872  0.584-   9 2.25   9 2.25  18 2.27  18 2.27  22 2.28  22 2.28  16 2.28  16 2.28
                            13 2.29  13 2.29   7 2.46   1 3.05   2 3.05   4 3.06   2 3.08
   9  0.500  0.720  0.684-  16 1.80  13 1.81  10 1.86   8 2.25   8 2.25   2 2.70   2 2.70   1 2.72
                             1 2.72
  10  0.500  0.524  0.810-  12 1.73  23 1.81   9 1.86   5 2.29   5 2.29   2 2.66   2 2.66   1 2.73
                             1 2.73
  11  0.500  0.780  0.184-  21 1.80  15 1.81  14 1.86   6 2.25   6 2.25   3 2.70   3 2.70   4 2.72
                             4 2.72
  12  0.500  0.612  0.954-  20 1.69  21 1.73  10 1.73   5 2.27   5 2.27   6 2.28   6 2.28   1 2.61
                             1 2.61
  13  0.500  0.024  0.690-  18 1.73   9 1.81  23 1.86   8 2.29   8 2.29   1 2.66   1 2.66   2 2.73
                             2 2.73
  14  0.500  0.976  0.310-  22 1.73  24 1.81  11 1.86   7 2.29   7 2.29   3 2.66   3 2.66   4 2.73
                             4 2.73
  15  0.500  0.476  0.190-  20 1.73  11 1.81  24 1.86   6 2.29   6 2.29   4 2.66   4 2.66   3 2.73
                             3 2.73
  16  0.500  0.639  0.532-  22 1.73   9 1.80  17 1.81   8 2.28   8 2.28   2 2.69   2 2.69   4 2.71
                             4 2.71
  17  0.500  0.361  0.468-  18 1.73  24 1.80  16 1.81   7 2.28   7 2.28   4 2.69   4 2.69   2 2.71
                             2 2.71
  18  0.500  0.112  0.546-  22 1.69  17 1.73  13 1.73   8 2.27   8 2.27   7 2.28   7 2.28   2 2.61
                             2 2.61
  19  0.500  0.139  0.968-  20 1.73  23 1.80  21 1.81   5 2.28   5 2.28   1 2.69   1 2.69   3 2.71
                             3 2.71
  20  0.500  0.388  0.046-  12 1.69  19 1.73  15 1.73   6 2.27   6 2.27   5 2.28   5 2.28   3 2.61
                             3 2.61
  21  0.500  0.861  0.032-  12 1.73  11 1.80  19 1.81   6 2.28   6 2.28   3 2.69   3 2.69   1 2.71
                             1 2.71
  22  0.500  0.888  0.454-  18 1.69  16 1.73  14 1.73   7 2.27   7 2.27   8 2.28   8 2.28   4 2.61
                             4 2.61
  23  0.500  0.220  0.816-  19 1.80  10 1.81  13 1.86   5 2.25   5 2.25   1 2.70   1 2.70   2 2.72
                             2 2.72
  24  0.500  0.280  0.316-  17 1.80  14 1.81  15 1.86   7 2.25   7 2.25   4 2.70   4 2.70   3 2.72
                             3 2.72
 
  LATTYP: Found a simple orthorhombic cell.
 ALAT       =     3.4287560000
 B/A-ratio  =     1.7308997782
 C/A-ratio  =     3.3469220324
  
  Lattice vectors:
  
 A1 = (   3.4287560000,   0.0000000000,   0.0000000000)
 A2 = (   0.0000000000,   5.9348330000,   0.0000000000)
 A3 = (   0.0000000000,   0.0000000000,  11.4757790000)


Analysis of symmetry for initial positions (statically):
=====================================================================
 Subroutine PRICEL returns:
 Original cell was already a primitive cell.
 

 Routine SETGRP: Setting up the symmetry group for a 
 simple orthorhombic supercell.


 Subroutine GETGRP returns: Found  8 space group operations
 (whereof  4 operations were pure point group operations)
 out of a pool of  8 trial point group operations.


The static configuration has the point symmetry C_2h.
 The point group associated with its full space group is D_2h.


Analysis of symmetry for dynamics (positions and initial velocities):
=====================================================================
 Subroutine PRICEL returns:
 Original cell was already a primitive cell.
 

 Routine SETGRP: Setting up the symmetry group for a 
 simple orthorhombic supercell.


 Subroutine GETGRP returns: Found  8 space group operations
 (whereof  4 operations were pure point group operations)
 out of a pool of  8 trial point group operations.


The dynamic configuration has the point symmetry C_2h.
 The point group associated with its full space group is D_2h.


Analysis of structural, dynamic, and magnetic symmetry:
=====================================================================
 Subroutine PRICEL returns:
 Original cell was already a primitive cell.
 

 Routine SETGRP: Setting up the symmetry group for a 
 simple orthorhombic supercell.


 Subroutine GETGRP returns: Found  8 space group operations
 (whereof  4 operations were pure point group operations)
 out of a pool of  8 trial point group operations.


The overall configuration has the point symmetry C_2h.
 The point group associated with its full space group is D_2h.


 Subroutine INISYM returns: Found  8 space group operations
 (whereof  4 operations are pure point group operations),
 and found     1 'primitive' translations


----------------------------------------------------------------------------------------

                                     Primitive cell                                     

  volume of cell :     233.5217

  direct lattice vectors                    reciprocal lattice vectors
     3.428756000  0.000000000  0.000000000     0.291650966  0.000000000  0.000000000
     0.000000000  5.934833000  0.000000000     0.000000000  0.168496738  0.000000000
     0.000000000  0.000000000 11.475779000     0.000000000  0.000000000  0.087140054

  length of vectors
     3.428756000  5.934833000 11.475779000     0.291650966  0.168496738  0.087140054

  position of ions in fractional coordinates (direct lattice)
     0.000000000  0.874421000  0.849655000
     0.000000000  0.374421000  0.650345000
     0.000000000  0.125579000  0.150345000
     0.000000000  0.625579000  0.349655000
     0.000000000  0.372120000  0.915873000
     0.000000000  0.627880000  0.084127000
     0.000000000  0.127880000  0.415873000
     0.000000000  0.872120000  0.584127000
     0.500000000  0.719950000  0.683516000
     0.500000000  0.524346000  0.809903000
     0.500000000  0.780050000  0.183516000
     0.500000000  0.611588000  0.954045000
     0.500000000  0.024346000  0.690097000
     0.500000000  0.975654000  0.309903000
     0.500000000  0.475654000  0.190097000
     0.500000000  0.639137000  0.532485000
     0.500000000  0.360863000  0.467515000
     0.500000000  0.111588000  0.545955000
     0.500000000  0.139137000  0.967515000
     0.500000000  0.388412000  0.045955000
     0.500000000  0.860863000  0.032485000
     0.500000000  0.888412000  0.454045000
     0.500000000  0.219950000  0.816484000
     0.500000000  0.280050000  0.316484000

  ion indices of the primitive-cell ions
   primitive index   ion index
                 1           1
                 2           2
                 3           3
                 4           4
                 5           5
                 6           6
                 7           7
                 8           8
                 9           9
                10          10
                11          11
                12          12
                13          13
                14          14
                15          15
                16          16
                17          17
                18          18
                19          19
                20          20
                21          21
                22          22
                23          23
                24          24

----------------------------------------------------------------------------------------

 
 
 KPOINTS: Kpoints from vasprun.xml                

Automatic generation of k-mesh.
 Grid dimensions read from file:
 generate k-points for:    8    4    2

 Generating k-lattice:

  Cartesian coordinates                     Fractional coordinates (reciprocal lattice)
     0.036456371  0.000000000  0.000000000     0.125000000  0.000000000  0.000000000
     0.000000000  0.042124184  0.000000000     0.000000000  0.250000000  0.000000000
     0.000000000  0.000000000  0.043570027     0.000000000  0.000000000  0.500000000

  Length of vectors
     0.036456371  0.042124184  0.043570027

  Shift w.r.t. Gamma in fractional coordinates (k-lattice)
     0.000000000  0.000000000  0.000000000

 TETIRR: Found    192 inequivalent tetrahedra from      384
 
 Subroutine IBZKPT returns following result:
 ===========================================
 
 Found     30 irreducible k-points:
 
 Following reciprocal coordinates:
            Coordinates               Weight
  0.000000  0.000000  0.000000      1.000000
  0.125000  0.000000  0.000000      2.000000
  0.250000  0.000000  0.000000      2.000000
  0.375000  0.000000  0.000000      2.000000
  0.500000  0.000000  0.000000      1.000000
  0.000000  0.250000  0.000000      2.000000
  0.125000  0.250000  0.000000      4.000000
  0.250000  0.250000  0.000000      4.000000
  0.375000  0.250000  0.000000      4.000000
  0.500000  0.250000  0.000000      2.000000
  0.000000  0.500000  0.000000      1.000000
  0.125000  0.500000  0.000000      2.000000
  0.250000  0.500000  0.000000      2.000000
  0.375000  0.500000  0.000000      2.000000
  0.500000  0.500000  0.000000      1.000000
  0.000000  0.000000  0.500000      1.000000
  0.125000  0.000000  0.500000      2.000000
  0.250000  0.000000  0.500000      2.000000
  0.375000  0.000000  0.500000      2.000000
  0.500000  0.000000  0.500000      1.000000
  0.000000  0.250000  0.500000      2.000000
  0.125000  0.250000  0.500000      4.000000
  0.250000  0.250000  0.500000      4.000000
  0.375000  0.250000  0.500000      4.000000
  0.500000  0.250000  0.500000      2.000000
  0.000000  0.500000  0.500000      1.000000
  0.125000  0.500000  0.500000      2.000000
  0.250000  0.500000  0.500000      2.000000
  0.375000  0.500000  0.500000      2.000000
  0.500000  0.500000  0.500000      1.000000
 
 Following cartesian coordinates:
            Coordinates               Weight
  0.000000  0.000000  0.000000      1.000000
  0.036456  0.000000  0.000000      2.000000
  0.072913  0.000000  0.000000      2.000000
  0.109369  0.000000  0.000000      2.000000
  0.145825  0.000000  0.000000      1.000000
  0.000000  0.042124  0.000000      2.000000
  0.036456  0.042124  0.000000      4.000000
  0.072913  0.042124  0.000000      4.000000
  0.109369  0.042124  0.000000      4.000000
  0.145825  0.042124  0.000000      2.000000
  0.000000  0.084248  0.000000      1.000000
  0.036456  0.084248  0.000000      2.000000
  0.072913  0.084248  0.000000      2.000000
  0.109369  0.084248  0.000000      2.000000
  0.145825  0.084248  0.000000      1.000000
  0.000000  0.000000  0.043570      1.000000
  0.036456  0.000000  0.043570      2.000000
  0.072913  0.000000  0.043570      2.000000
  0.109369  0.000000  0.043570      2.000000
  0.145825  0.000000  0.043570      1.000000
  0.000000  0.042124  0.043570      2.000000
  0.036456  0.042124  0.043570      4.000000
  0.072913  0.042124  0.043570      4.000000
  0.109369  0.042124  0.043570      4.000000
  0.145825  0.042124  0.043570      2.000000
  0.000000  0.084248  0.043570      1.000000
  0.036456  0.084248  0.043570      2.000000
  0.072913  0.084248  0.043570      2.000000
  0.109369  0.084248  0.043570      2.000000
  0.145825  0.084248  0.043570      1.000000
 


--------------------------------------------------------------------------------------------------------




 Dimension of arrays:
   k-points           NKPTS =     30   k-points in BZ     NKDIM =     30   number of bands    NBANDS=    132
   number of dos      NEDOS =    301   number of ions     NIONS =     24
   non local maximal  LDIM  =      8   non local SUM 2l+1 LMDIM =     32
   total plane-waves  NPLWV = 120960
   max r-space proj   IRMAX =   9398   max aug-charges    IRDMAX= 245306
   dimension x,y,z NGX =    28 NGY =   48 NGZ =   90
   dimension x,y,z NGXF=    56 NGYF=   96 NGZF=  180
   support grid    NGXF=   112 NGYF=  192 NGZF=  360
   ions per type =               4   4  16
   NGX,Y,Z   is equivalent  to a cutoff of  13.58, 13.45, 13.04 a.u.
   NGXF,Y,Z  is equivalent  to a cutoff of  27.15, 26.89, 26.08 a.u.

 SYSTEM =  unknown system                          
 POSCAR =  Gd4 Mn4 B16                             

 Startparameter for this run:
   NWRITE =      2    write-flag & timer
   PREC   = accura    normal or accurate (medium, high low for compatibility)
   ISTART =      0    job   : 0-new  1-cont  2-samecut
   ICHARG =      0    charge: 1-file 2-atom 10-const
   ISPIN  =      2    spin polarized calculation?
   LNONCOLLINEAR =      F non collinear calculations
   LSORBIT =      F    spin-orbit coupling
   INIWAV =      1    electr: 0-lowe 1-rand  2-diag
   LASPH  =      T    aspherical Exc in radial PAW
 Electronic Relaxation 1
   ENCUT  =  520.0 eV  38.22 Ry    6.18 a.u.   6.38 11.03 21.34*2*pi/ulx,y,z
   ENINI  =  520.0     initial cutoff
   ENAUG  =  569.1 eV  augmentation charge cutoff
   NELM   =   1000;   NELMIN=  2; NELMDL= -5     # of ELM steps 
   EDIFF  = 0.1E-02   stopping-criterion for ELM
   LREAL  =      T    real-space projection
   NLSPLINE    = F    spline interpolate recip. space projectors
   LCOMPAT=      F    compatible to vasp.4.4
   GGA_COMPAT  = T    GGA compatible to vasp.4.4-vasp.4.6
   LMAXPAW     = -100 max onsite density
   LMAXMIX     =    2 max onsite mixed and CHGCAR
   VOSKOWN=      0    Vosko Wilk Nusair interpolation
   ROPT   =   -0.00025  -0.00025  -0.00025
 Ionic relaxation
   EDIFFG = 0.1E-01   stopping-criterion for IOM
   NSW    =      0    number of steps for IOM
   NBLOCK =      1;   KBLOCK =      1    inner block; outer block 
   IBRION =     -1    ionic relax: 0-MD 1-quasi-New 2-CG
   NFREE  =      0    steps in history (QN), initial steepest desc. (CG)
   ISIF   =      3    stress and relaxation
   IWAVPR =     10    prediction:  0-non 1-charg 2-wave 3-comb
   ISYM   =      2    0-nonsym 1-usesym 2-fastsym
   LCORR  =      T    Harris-Foulkes like correction to forces

   POTIM  = 0.5000    time-step for ionic-motion
   TEIN   =    0.0    initial temperature
   TEBEG  =    0.0;   TEEND  =   0.0 temperature during run
   SMASS  =  -3.00    Nose mass-parameter (am)
   estimated Nose-frequenzy (Omega)   =  0.10E-29 period in steps = 0.13E+47 mass=  -0.269E-27a.u.
   SCALEE = 1.0000    scale energy and forces
   NPACO  =    256;   APACO  = 10.0  distance and # of slots for P.C.
   PSTRESS=    0.0 pullay stress

  Mass of Ions in am
   POMASS = 157.25 54.94 10.81
  Ionic Valenz
   ZVAL   =  18.00 13.00  3.00
  Atomic Wigner-Seitz radii
   RWIGS  =  -1.00 -1.00 -1.00
  virtual crystal weights 
   VCA    =   1.00  1.00  1.00
   NELECT =     172.0000    total number of electrons
   NUPDOWN=      10.0000    fix difference up-down

 DOS related values:
   EMIN   =  10.00;   EMAX   =-10.00  energy-range for DOS
   EFERMI =   0.00
   ISMEAR =    -5;   SIGMA  =   0.05  broadening in eV -4-tet -1-fermi 0-gaus

 Electronic relaxation 2 (details)
   IALGO  =     38    algorithm
   LDIAG  =      T    sub-space diagonalisation (order eigenvalues)
   LSUBROT=      F    optimize rotation matrix (better conditioning)
   TURBO    =      0    0=normal 1=particle mesh
   IRESTART =      0    0=no restart 2=restart with 2 vectors
   NREBOOT  =      0    no. of reboots
   NMIN     =      0    reboot dimension
   EREF     =   0.00    reference energy to select bands
   IMIX   =      4    mixing-type and parameters
     AMIX     =   0.40;   BMIX     =  1.00
     AMIX_MAG =   1.60;   BMIX_MAG =  1.00
     AMIN     =   0.10
     WC   =   100.;   INIMIX=   1;  MIXPRE=   1;  MAXMIX= -45

 Intra band minimization:
   WEIMIN = 0.0000     energy-eigenvalue tresh-hold
   EBREAK =  0.23E-05  absolut break condition
   DEPER  =   0.30     relativ break condition  

   TIME   =   0.40     timestep for ELM

  volume/ion in A,a.u.               =       9.73        65.66
  Fermi-wavevector in a.u.,A,eV,Ry     =   1.478457  2.793878 29.740073  2.185834
  Thomas-Fermi vector in A             =   2.592735
 
 Write flags
   LWAVE        =      F    write WAVECAR
   LDOWNSAMPLE  =      F    k-point downsampling of WAVECAR
   LCHARG       =      T    write CHGCAR
   LVTOT        =      F    write LOCPOT, total local potential
   LVHAR        =      T    write LOCPOT, Hartree potential only
   LELF         =      T    write electronic localiz. function (ELF)
   LORBIT       =     11    0 simple, 1 ext, 2 COOP (PROOUT), +10 PAW based schemes


 Dipole corrections
   LMONO  =      F    monopole corrections only (constant potential shift)
   LDIPOL =      F    correct potential (dipole corrections)
   IDIPOL =      0    1-x, 2-y, 3-z, 4-all directions 
   EPSILON=  1.0000000 bulk dielectric constant

 Exchange correlation treatment:
   GGA     =    --    GGA type
   LEXCH   =     8    internal setting for exchange type
   LIBXC   =     F    Libxc                    
   VOSKOWN =     0    Vosko Wilk Nusair interpolation
   LHFCALC =     F    Hartree Fock is set to
   LHFONE  =     F    Hartree Fock one center treatment
   AEXX    =    0.0000 exact exchange contribution

 Linear response parameters
   LEPSILON=     F    determine dielectric tensor
   LRPA    =     F    only Hartree local field effects (RPA)
   LNABLA  =     F    use nabla operator in PAW spheres
   LVEL    =     F    velocity operator in full k-point grid
   CSHIFT  =0.1000    complex shift for real part using Kramers Kronig
   OMEGAMAX=  -1.0    maximum frequency
   DEG_THRESHOLD= 0.2000000E-02 threshold for treating states as degnerate
   RTIME   =   -0.100 relaxation time in fs
  (WPLASMAI=    0.000 imaginary part of plasma frequency in eV, 0.658/RTIME)
   DFIELD  = 0.0000000 0.0000000 0.0000000 field for delta impulse in time
 
  Optional k-point grid parameters
   LKPOINTS_OPT  =     F    use optional k-point grid
   KPOINTS_OPT_MODE=     1    mode for optional k-point grid
 
 Orbital magnetization related:
   ORBITALMAG=     F  switch on orbital magnetization
   LCHIMAG   =     F  perturbation theory with respect to B field
   DQ        =  0.001000  dq finite difference perturbation B field
   LLRAUG    =     F  two centre corrections for induced B field



--------------------------------------------------------------------------------------------------------


 Static calculation
 charge density and potential will be updated during run
 spin polarized calculation
 Variant of blocked Davidson
 Davidson routine will perform the subspace rotation
 perform sub-space diagonalisation
    after iterative eigenvector-optimisation
 modified Broyden-mixing scheme, WC =      100.0
 initial mixing is a Kerker type mixing with AMIX =  0.4000 and BMIX =      1.0000
 Hartree-type preconditioning will be used
 using additional bands            46
 real space projection scheme for non local part
 use partial core corrections
 calculate Harris-corrections to forces 
   (improved forces if not selfconsistent)
 use gradient corrections 
 use of overlap-Matrix (Vanderbilt PP)
 Fermi weights with tetrahedron method with Bloechl corrections


--------------------------------------------------------------------------------------------------------


  energy-cutoff  :      520.00
  volume of cell :      233.52
      direct lattice vectors                 reciprocal lattice vectors
     3.428756000  0.000000000  0.000000000     0.291650966  0.000000000  0.000000000
     0.000000000  5.934833000  0.000000000     0.000000000  0.168496738  0.000000000
     0.000000000  0.000000000 11.475779000     0.000000000  0.000000000  0.087140054

  length of vectors
     3.428756000  5.934833000 11.475779000     0.291650966  0.168496738  0.087140054


 
 k-points in units of 2pi/SCALE and weight: Kpoints from vasprun.xml                
   0.00000000  0.00000000  0.00000000       0.016
   0.03645637  0.00000000  0.00000000       0.031
   0.07291274  0.00000000  0.00000000       0.031
   0.10936911  0.00000000  0.00000000       0.031
   0.14582548  0.00000000  0.00000000       0.016
   0.00000000  0.04212418  0.00000000       0.031
   0.03645637  0.04212418  0.00000000       0.063
   0.07291274  0.04212418  0.00000000       0.063
   0.10936911  0.04212418  0.00000000       0.063
   0.14582548  0.04212418  0.00000000       0.031
   0.00000000  0.08424837  0.00000000       0.016
   0.03645637  0.08424837  0.00000000       0.031
   0.07291274  0.08424837  0.00000000       0.031
   0.10936911  0.08424837  0.00000000       0.031
   0.14582548  0.08424837  0.00000000       0.016
   0.00000000  0.00000000  0.04357003       0.016
   0.03645637  0.00000000  0.04357003       0.031
   0.07291274  0.00000000  0.04357003       0.031
   0.10936911  0.00000000  0.04357003       0.031
   0.14582548  0.00000000  0.04357003       0.016
   0.00000000  0.04212418  0.04357003       0.031
   0.03645637  0.04212418  0.04357003       0.063
   0.07291274  0.04212418  0.04357003       0.063
   0.10936911  0.04212418  0.04357003       0.063
   0.14582548  0.04212418  0.04357003       0.031
   0.00000000  0.08424837  0.04357003       0.016
   0.03645637  0.08424837  0.04357003       0.031
   0.07291274  0.08424837  0.04357003       0.031
   0.10936911  0.08424837  0.04357003       0.031
   0.14582548  0.08424837  0.04357003       0.016
 
 k-points in reciprocal lattice and weights: Kpoints from vasprun.xml                
   0.00000000  0.00000000  0.00000000       0.016
   0.12500000  0.00000000  0.00000000       0.031
   0.25000000  0.00000000  0.00000000       0.031
   0.37500000  0.00000000  0.00000000       0.031
   0.50000000  0.00000000  0.00000000       0.016
   0.00000000  0.25000000  0.00000000       0.031
   0.12500000  0.25000000  0.00000000       0.063
   0.25000000  0.25000000  0.00000000       0.063
   0.37500000  0.25000000  0.00000000       0.063
   0.50000000  0.25000000  0.00000000       0.031
   0.00000000  0.50000000  0.00000000       0.016
   0.12500000  0.50000000  0.00000000       0.031
   0.25000000  0.50000000  0.00000000       0.031
   0.37500000  0.50000000  0.00000000       0.031
   0.50000000  0.50000000  0.00000000       0.016
   0.00000000  0.00000000  0.50000000       0.016
   0.12500000  0.00000000  0.50000000       0.031
   0.25000000  0.00000000  0.50000000       0.031
   0.37500000  0.00000000  0.50000000       0.031
   0.50000000  0.00000000  0.50000000       0.016
   0.00000000  0.25000000  0.50000000       0.031
   0.12500000  0.25000000  0.50000000       0.063
   0.25000000  0.25000000  0.50000000       0.063
   0.37500000  0.25000000  0.50000000       0.063
   0.50000000  0.25000000  0.50000000       0.031
   0.00000000  0.50000000  0.50000000       0.016
   0.12500000  0.50000000  0.50000000       0.031
   0.25000000  0.50000000  0.50000000       0.031
   0.37500000  0.50000000  0.50000000       0.031
   0.50000000  0.50000000  0.50000000       0.016
 
 position of ions in fractional coordinates (direct lattice) 
   0.00000000  0.87442100  0.84965500
   0.00000000  0.37442100  0.65034500
   0.00000000  0.12557900  0.15034500
   0.00000000  0.62557900  0.34965500
   0.00000000  0.37212000  0.91587300
   0.00000000  0.62788000  0.08412700
   0.00000000  0.12788000  0.41587300
   0.00000000  0.87212000  0.58412700
   0.50000000  0.71995000  0.68351600
   0.50000000  0.52434600  0.80990300
   0.50000000  0.78005000  0.18351600
   0.50000000  0.61158800  0.95404500
   0.50000000  0.02434600  0.69009700
   0.50000000  0.97565400  0.30990300
   0.50000000  0.47565400  0.19009700
   0.50000000  0.63913700  0.53248500
   0.50000000  0.36086300  0.46751500
   0.50000000  0.11158800  0.54595500
   0.50000000  0.13913700  0.96751500
   0.50000000  0.38841200  0.04595500
   0.50000000  0.86086300  0.03248500
   0.50000000  0.88841200  0.45404500
   0.50000000  0.21995000  0.81648400
   0.50000000  0.28005000  0.31648400
 
 position of ions in cartesian coordinates  (Angst):
   0.00000000  5.18954261  9.75045301
   0.00000000  2.22212611  7.46321549
   0.00000000  0.74529039  1.72532599
   0.00000000  3.71270689  4.01256351
   0.00000000  2.20847006 10.51035614
   0.00000000  3.72636294  0.96542286
   0.00000000  0.75894644  4.77246664
   0.00000000  5.17588656  6.70331236
   1.71437800  4.27278302  7.84387856
   1.71437800  3.11190594  9.29426784
   1.71437800  4.62946648  2.10598906
   1.71437800  3.62967264 10.94840958
   1.71437800  0.14448944  7.91940066
   1.71437800  5.79034356  3.55637834
   1.71437800  2.82292706  2.18151116
   1.71437800  3.79317136  6.11068018
   1.71437800  2.14166164  5.36509882
   1.71437800  0.66225614  6.26525892
   1.71437800  0.82575486 11.10298832
   1.71437800  2.30516036  0.52736942
   1.71437800  5.10907814  0.37279068
   1.71437800  5.27257686  5.21052008
   1.71437800  1.30536652  9.36978994
   1.71437800  1.66204998  3.63190044
 


--------------------------------------------------------------------------------------------------------


 k-point   1 :   0.0000 0.0000 0.0000  plane waves:    6297
 k-point   2 :   0.1250 0.0000 0.0000  plane waves:    6307
 k-point   3 :   0.2500 0.0000 0.0000  plane waves:    6267
 k-point   4 :   0.3750 0.0000 0.0000  plane waves:    6271
 k-point   5 :   0.5000 0.0000 0.0000  plane waves:    6244
 k-point   6 :   0.0000 0.2500 0.0000  plane waves:    6310
 k-point   7 :   0.1250 0.2500 0.0000  plane waves:    6302
 k-point   8 :   0.2500 0.2500 0.0000  plane waves:    6291
 k-point   9 :   0.3750 0.2500 0.0000  plane waves:    6269
 k-point  10 :   0.5000 0.2500 0.0000  plane waves:    6264
 k-point  11 :   0.0000 0.5000 0.0000  plane waves:    6338
 k-point  12 :   0.1250 0.5000 0.0000  plane waves:    6300
 k-point  13 :   0.2500 0.5000 0.0000  plane waves:    6312
 k-point  14 :   0.3750 0.5000 0.0000  plane waves:    6282
 k-point  15 :   0.5000 0.5000 0.0000  plane waves:    6292
 k-point  16 :   0.0000 0.0000 0.5000  plane waves:    6302
 k-point  17 :   0.1250 0.0000 0.5000  plane waves:    6290
 k-point  18 :   0.2500 0.0000 0.5000  plane waves:    6266
 k-point  19 :   0.3750 0.0000 0.5000  plane waves:    6234
 k-point  20 :   0.5000 0.0000 0.5000  plane waves:    6280
 k-point  21 :   0.0000 0.2500 0.5000  plane waves:    6296
 k-point  22 :   0.1250 0.2500 0.5000  plane waves:    6314
 k-point  23 :   0.2500 0.2500 0.5000  plane waves:    6304
 k-point  24 :   0.3750 0.2500 0.5000  plane waves:    6272
 k-point  25 :   0.5000 0.2500 0.5000  plane waves:    6284
 k-point  26 :   0.0000 0.5000 0.5000  plane waves:    6308
 k-point  27 :   0.1250 0.5000 0.5000  plane waves:    6300
 k-point  28 :   0.2500 0.5000 0.5000  plane waves:    6288
 k-point  29 :   0.3750 0.5000 0.5000  plane waves:    6268
 k-point  30 :   0.5000 0.5000 0.5000  plane waves:    6296

 maximum and minimum number of plane-waves per node :      6338     6234

 maximum number of plane-waves:      6338
 maximum index in each direction: 
   IXMAX=    6   IYMAX=   11   IZMAX=   21
   IXMIN=   -6   IYMIN=  -11   IZMIN=  -21


 serial   3D FFT for wavefunctions
 parallel 3D FFT for charge:
    minimum data exchange during FFTs selected (reduces bandwidth)


 total amount of memory used by VASP MPI-rank0   333052. kBytes
=======================================================================

   base      :      30000. kBytes
   nonlr-proj:      22338. kBytes
   fftplans  :      35911. kBytes
   grid      :      31202. kBytes
   one-center:       2359. kBytes
   wavefun   :     211242. kBytes
 
     INWAV:  cpu time      0.0001: real time      0.0008
 Broyden mixing: mesh for mixing (old mesh)
   NGX = 13   NGY = 23   NGZ = 43
  (NGX  = 56   NGY  = 96   NGZ  =180)
  gives a total of  12857 points

 charge density for first step will be calculated from the start-wavefunctions


--------------------------------------------------------------------------------------------------------


 Maximum index for non-local projection operator          9090
 Maximum index for augmentation-charges         59462 (set IRDMAX)


--------------------------------------------------------------------------------------------------------


 initial charge from wavefunction
 First call to EWALD:  gamma=   0.288
 Maximum number of real-space cells 5x 3x 2
 Maximum number of reciprocal cells 2x 3x 5

    FEWALD:  cpu time      0.0014: real time      0.0014


--------------------------------------- Iteration      1(   1)  ---------------------------------------


    POTLOK:  cpu time      0.1008: real time      0.1482
    SETDIJ:  cpu time      2.3383: real time      2.3393
     EDDAV:  cpu time     12.3364: real time     12.3436
 BZINTS: Fermi energy:   33.906649;  182.000000 electrons
         Band energy:-0.879245E+04;  BLOECHL correction:   -0.558515
 BZINTS: Fermi energy:   18.801864;  162.000000 electrons
         Band energy:-0.935482E+04;  BLOECHL correction:   -0.338030
       DOS:  cpu time      0.2074: real time      0.2075
    --------------------------------------------
      LOOP:  cpu time     14.9829: real time     15.0385

 eigenvalue-minimisations  : 27760
 total energy-change (2. order) :-0.4081666E+04  (-0.1253638E+05)
 number of electron     172.0000002 magnetization      -0.0000000
 augmentation part       28.6403794 magnetization      -0.0081902

 Free energy of the ion-electron system (eV)
  ---------------------------------------------------
  alpha Z        PSCENC =      1478.47565082
  Ewald energy   TEWEN  =    -16459.83277117
  -Hartree energ DENC   =     -1113.84062043
  -exchange      EXHF   =         0.00000000
  -V(xc)+E(xc)   XCENC  =       587.20732134
  PAW double counting   =    226670.77487617  -227600.96823149
  entropy T*S    EENTRO =         0.00000000
  eigenvalues    EBANDS =     -9073.63790967
  atomic energy  EATOM  =     21430.15519593
  Solvation  Ediel_sol  =         0.00000000
  ---------------------------------------------------
  free energy    TOTEN  =     -4081.66648850 eV

  energy without entropy =    -4081.66648850  energy(sigma->0) =    -4081.66648850


--------------------------------------------------------------------------------------------------------




--------------------------------------- Iteration      1(   2)  ---------------------------------------


     EDDAV:  cpu time      9.2976: real time      9.3051
 BZINTS: Fermi energy:   -8.415929;  182.000000 electrons
         Band energy:-0.125717E+05;  BLOECHL correction:   -0.317418
 BZINTS: Fermi energy:  -17.295233;  162.000000 electrons
         Band energy:-0.123056E+05;  BLOECHL correction:   -0.277397
       DOS:  cpu time      0.1989: real time      0.1990
    --------------------------------------------
      LOOP:  cpu time      9.4965: real time      9.5040

 eigenvalue-minimisations  : 19800
 total energy-change (2. order) :-0.3365042E+04  (-0.2979655E+04)
 number of electron     172.0000002 magnetization      -0.0000000
 augmentation part       28.6403794 magnetization      -0.0081902

 Free energy of the ion-electron system (eV)
  ---------------------------------------------------
  alpha Z        PSCENC =      1478.47565082
  Ewald energy   TEWEN  =    -16459.83277117
  -Hartree energ DENC   =     -1113.84062043
  -exchange      EXHF   =         0.00000000
  -V(xc)+E(xc)   XCENC  =       587.20732134
  PAW double counting   =    226670.77487617  -227600.96823149
  entropy T*S    EENTRO =         0.00000000
  eigenvalues    EBANDS =    -12438.67998989
  atomic energy  EATOM  =     21430.15519593
  Solvation  Ediel_sol  =         0.00000000
  ---------------------------------------------------
  free energy    TOTEN  =     -7446.70856873 eV

  energy without entropy =    -7446.70856873  energy(sigma->0) =    -7446.70856873


--------------------------------------------------------------------------------------------------------




--------------------------------------- Iteration      1(   3)  ---------------------------------------


     EDDAV:  cpu time      9.3444: real time      9.3507
 BZINTS: Fermi energy:  -23.700065;  182.000000 electrons
         Band energy:-0.133064E+05;  BLOECHL correction:   -0.075651
 BZINTS: Fermi energy:  -25.237019;  162.000000 electrons
         Band energy:-0.128134E+05;  BLOECHL correction:   -0.023728
       DOS:  cpu time      0.1897: real time      0.1897
    --------------------------------------------
      LOOP:  cpu time      9.5341: real time      9.5404

 eigenvalue-minimisations  : 20128
 total energy-change (2. order) :-0.6212099E+03  (-0.5942929E+03)
 number of electron     172.0000002 magnetization      -0.0000000
 augmentation part       28.6403794 magnetization      -0.0081902

 Free energy of the ion-electron system (eV)
  ---------------------------------------------------
  alpha Z        PSCENC =      1478.47565082
  Ewald energy   TEWEN  =    -16459.83277117
  -Hartree energ DENC   =     -1113.84062043
  -exchange      EXHF   =         0.00000000
  -V(xc)+E(xc)   XCENC  =       587.20732134
  PAW double counting   =    226670.77487617  -227600.96823149
  entropy T*S    EENTRO =         0.00000000
  eigenvalues    EBANDS =    -13059.88984315
  atomic energy  EATOM  =     21430.15519593
  Solvation  Ediel_sol  =         0.00000000
  ---------------------------------------------------
  free energy    TOTEN  =     -8067.91842198 eV

  energy without entropy =    -8067.91842198  energy(sigma->0) =    -8067.91842198


--------------------------------------------------------------------------------------------------------




--------------------------------------- Iteration      1(   4)  ---------------------------------------


     EDDAV:  cpu time     10.3878: real time     10.3969
 BZINTS: Fermi energy:  -24.834928;  182.000000 electrons
         Band energy:-0.133825E+05;  BLOECHL correction:   -0.006502
 BZINTS: Fermi energy:  -26.004926;  162.000000 electrons
         Band energy:-0.128760E+05;  BLOECHL correction:   -0.059116
       DOS:  cpu time      0.1891: real time      0.1891
    --------------------------------------------
      LOOP:  cpu time     10.5769: real time     10.5861

 eigenvalue-minimisations  : 22732
 total energy-change (2. order) :-0.6934398E+02  (-0.6773219E+02)
 number of electron     172.0000002 magnetization      -0.0000000
 augmentation part       28.6403794 magnetization      -0.0081902

 Free energy of the ion-electron system (eV)
  ---------------------------------------------------
  alpha Z        PSCENC =      1478.47565082
  Ewald energy   TEWEN  =    -16459.83277117
  -Hartree energ DENC   =     -1113.84062043
  -exchange      EXHF   =         0.00000000
  -V(xc)+E(xc)   XCENC  =       587.20732134
  PAW double counting   =    226670.77487617  -227600.96823149
  entropy T*S    EENTRO =         0.00000000
  eigenvalues    EBANDS =    -13129.23382103
  atomic energy  EATOM  =     21430.15519593
  Solvation  Ediel_sol  =         0.00000000
  ---------------------------------------------------
  free energy    TOTEN  =     -8137.26239986 eV

  energy without entropy =    -8137.26239986  energy(sigma->0) =    -8137.26239986


--------------------------------------------------------------------------------------------------------




--------------------------------------- Iteration      1(   5)  ---------------------------------------


     EDDAV:  cpu time     11.7309: real time     11.7376
 BZINTS: Fermi energy:  -24.889911;  182.000000 electrons
         Band energy:-0.133903E+05;  BLOECHL correction:   -0.005670
 BZINTS: Fermi energy:  -26.073247;  162.000000 electrons
         Band energy:-0.128834E+05;  BLOECHL correction:   -0.062956
       DOS:  cpu time      0.1866: real time      0.1866
    CHARGE:  cpu time      0.3490: real time      0.3493
    MIXING:  cpu time      0.0025: real time      0.0025
    --------------------------------------------
      LOOP:  cpu time     12.2689: real time     12.2761

 eigenvalue-minimisations  : 26384
 total energy-change (2. order) :-0.7607941E+01  (-0.7592880E+01)
 number of electron     172.0000006 magnetization       3.6901770
 augmentation part       97.9407178 magnetization      -4.3607873

 Broyden mixing:
  rms(total) = 0.24126E+03    rms(broyden)= 0.24126E+03
  rms(prec ) = 0.24330E+03
  weight for this iteration     100.00

 Free energy of the ion-electron system (eV)
  ---------------------------------------------------
  alpha Z        PSCENC =      1478.47565082
  Ewald energy   TEWEN  =    -16459.83277117
  -Hartree energ DENC   =     -1113.84062043
  -exchange      EXHF   =         0.00000000
  -V(xc)+E(xc)   XCENC  =       587.20732134
  PAW double counting   =    226670.77487617  -227600.96823149
  entropy T*S    EENTRO =         0.00000000
  eigenvalues    EBANDS =    -13136.84176181
  atomic energy  EATOM  =     21430.15519593
  Solvation  Ediel_sol  =         0.00000000
  ---------------------------------------------------
  free energy    TOTEN  =     -8144.87034064 eV

  energy without entropy =    -8144.87034064  energy(sigma->0) =    -8144.87034064


--------------------------------------------------------------------------------------------------------




--------------------------------------- Iteration      1(   6)  ---------------------------------------


    POTLOK:  cpu time      0.0088: real time      0.0095
    SETDIJ:  cpu time      2.3377: real time      2.3385
     EDDAV:  cpu time     11.4457: real time     11.4513
 BZINTS: Fermi energy:   10.409973;  182.000000 electrons
         Band energy:-0.225911E+04;  BLOECHL correction:   -0.144314
 BZINTS: Fermi energy:    8.086764;  162.000000 electrons
         Band energy:-0.232443E+04;  BLOECHL correction:   -0.144682
       DOS:  cpu time      0.2016: real time      0.2016
    CHARGE:  cpu time      0.3369: real time      0.3370
    MIXING:  cpu time      0.0022: real time      0.0022
    --------------------------------------------
      LOOP:  cpu time     14.3328: real time     14.3401

 eigenvalue-minimisations  : 25472
 total energy-change (2. order) : 0.6624678E+04  (-0.1363880E+04)
 number of electron     172.0000004 magnetization       5.7115315
 augmentation part       45.7046596 magnetization      -6.2034012

 Broyden mixing:
  rms(total) = 0.11138E+03    rms(broyden)= 0.11138E+03
  rms(prec ) = 0.11348E+03
  weight for this iteration     100.00

 eigenvalues of (default mixing * dielectric matrix)
  average eigenvalue GAMMA=   0.5644
  0.5644

 Free energy of the ion-electron system (eV)
  ---------------------------------------------------
  alpha Z        PSCENC =      1478.47565082
  Ewald energy   TEWEN  =    -16459.83277117
  -Hartree energ DENC   =     -4327.73948940
  -exchange      EXHF   =         0.00000000
  -V(xc)+E(xc)   XCENC  =       727.10024320
  PAW double counting   =  10283707.44648627-10285784.02726999
  entropy T*S    EENTRO =         0.00000000
  eigenvalues    EBANDS =     -2291.77084455
  atomic energy  EATOM  =     21430.15519593
  Solvation  Ediel_sol  =         0.00000000
  ---------------------------------------------------
  free energy    TOTEN  =     -1520.19279889 eV

  energy without entropy =    -1520.19279889  energy(sigma->0) =    -1520.19279889


--------------------------------------------------------------------------------------------------------




--------------------------------------- Iteration      1(   7)  ---------------------------------------


    POTLOK:  cpu time      0.0087: real time      0.0094
    SETDIJ:  cpu time      2.3303: real time      2.3316
     EDDAV:  cpu time     11.9262: real time     11.9315
 BZINTS: Fermi energy:    7.952944;  182.000000 electrons
         Band energy:-0.279203E+04;  BLOECHL correction:   -0.142184
 BZINTS: Fermi energy:    5.170433;  162.000000 electrons
         Band energy:-0.285925E+04;  BLOECHL correction:   -0.129247
       DOS:  cpu time      0.2094: real time      0.2095
    CHARGE:  cpu time      0.3356: real time      0.3357
    MIXING:  cpu time      0.0026: real time      0.0026
    --------------------------------------------
      LOOP:  cpu time     14.8129: real time     14.8204

 eigenvalue-minimisations  : 26940
 total energy-change (2. order) :-0.1314290E+03  (-0.3312230E+04)
 number of electron     172.0000004 magnetization       6.1634435
 augmentation part       72.0665567 magnetization      -3.5273809

 Broyden mixing:
  rms(total) = 0.18735E+03    rms(broyden)= 0.18735E+03
  rms(prec ) = 0.18829E+03
  weight for this iteration     100.00

 eigenvalues of (default mixing * dielectric matrix)
  average eigenvalue GAMMA=   0.5873
  0.7620  0.4125

 Free energy of the ion-electron system (eV)
  ---------------------------------------------------
  alpha Z        PSCENC =      1478.47565082
  Ewald energy   TEWEN  =    -16459.83277117
  -Hartree energ DENC   =     -4706.93454345
  -exchange      EXHF   =         0.00000000
  -V(xc)+E(xc)   XCENC  =       738.04933425
  PAW double counting   =  11707323.47471238-11708629.36837081
  entropy T*S    EENTRO =         0.00000000
  eigenvalues    EBANDS =     -2825.64096818
  atomic energy  EATOM  =     21430.15519593
  Solvation  Ediel_sol  =         0.00000000
  ---------------------------------------------------
  free energy    TOTEN  =     -1651.62176022 eV

  energy without entropy =    -1651.62176022  energy(sigma->0) =    -1651.62176022


--------------------------------------------------------------------------------------------------------




--------------------------------------- Iteration      1(   8)  ---------------------------------------


    POTLOK:  cpu time      0.0086: real time      0.0093
    SETDIJ:  cpu time      2.3431: real time      2.3437
     EDDAV:  cpu time      9.5988: real time      9.6022
 BZINTS: Fermi energy:    7.314854;  182.000000 electrons
         Band energy:-0.101938E+04;  BLOECHL correction:   -0.085383
 BZINTS: Fermi energy:    6.611025;  162.000000 electrons
         Band energy:-0.110091E+04;  BLOECHL correction:   -0.012883
       DOS:  cpu time      0.2147: real time      0.2151
    CHARGE:  cpu time      0.3376: real time      0.3380
    MIXING:  cpu time      0.0023: real time      0.0023
    --------------------------------------------
      LOOP:  cpu time     12.5051: real time     12.5106

 eigenvalue-minimisations  : 20780
 total energy-change (2. order) : 0.1330220E+04  (-0.2660385E+03)
 number of electron     172.0000003 magnetization       6.4269120
 augmentation part       58.9396490 magnetization       4.3598158

 Broyden mixing:
  rms(total) = 0.11222E+03    rms(broyden)= 0.11222E+03
  rms(prec ) = 0.11269E+03
  weight for this iteration     100.00

 eigenvalues of (default mixing * dielectric matrix)
  average eigenvalue GAMMA=   0.5432
  0.5558  0.5558  0.5181

 Free energy of the ion-electron system (eV)
  ---------------------------------------------------
  alpha Z        PSCENC =      1478.47565082
  Ewald energy   TEWEN  =    -16459.83277117
  -Hartree energ DENC   =     -4832.98203102
  -exchange      EXHF   =         0.00000000
  -V(xc)+E(xc)   XCENC  =       743.53143772
  PAW double counting   =   8531224.34631932 -8532844.94728351
  entropy T*S    EENTRO =         0.00000000
  eigenvalues    EBANDS =     -1060.14836180
  atomic energy  EATOM  =     21430.15519593
  Solvation  Ediel_sol  =         0.00000000
  ---------------------------------------------------
  free energy    TOTEN  =      -321.40184370 eV

  energy without entropy =     -321.40184370  energy(sigma->0) =     -321.40184370


--------------------------------------------------------------------------------------------------------




--------------------------------------- Iteration      1(   9)  ---------------------------------------


    POTLOK:  cpu time      0.0088: real time      0.0096
    SETDIJ:  cpu time      2.3423: real time      2.3431
     EDDAV:  cpu time     11.7875: real time     11.7921
 BZINTS: Fermi energy:   12.339800;  182.000000 electrons
         Band energy:-0.138790E+04;  BLOECHL correction:   -0.135945
 BZINTS: Fermi energy:    8.643428;  162.000000 electrons
         Band energy:-0.156333E+04;  BLOECHL correction:   -0.151727
       DOS:  cpu time      0.1986: real time      0.1986
    CHARGE:  cpu time      0.3367: real time      0.3369
    MIXING:  cpu time      0.0023: real time      0.0023
    --------------------------------------------
      LOOP:  cpu time     14.6761: real time     14.6826

 eigenvalue-minimisations  : 26264
 total energy-change (2. order) :-0.3428730E+03  (-0.3692846E+03)
 number of electron     172.0000004 magnetization       6.4971833
 augmentation part       44.3742957 magnetization      -2.5959305

 Broyden mixing:
  rms(total) = 0.82503E+02    rms(broyden)= 0.82503E+02
  rms(prec ) = 0.83727E+02
  weight for this iteration     100.00

 eigenvalues of (default mixing * dielectric matrix)
  average eigenvalue GAMMA=   0.4578
  0.5303  0.5303  0.4963  0.2742

 Free energy of the ion-electron system (eV)
  ---------------------------------------------------
  alpha Z        PSCENC =      1478.47565082
  Ewald energy   TEWEN  =    -16459.83277117
  -Hartree energ DENC   =     -4677.85644587
  -exchange      EXHF   =         0.00000000
  -V(xc)+E(xc)   XCENC  =       739.66623392
  PAW double counting   =   5939444.89740660 -5941144.16650383
  entropy T*S    EENTRO =         0.00000000
  eigenvalues    EBANDS =     -1475.61356705
  atomic energy  EATOM  =     21430.15519593
  Solvation  Ediel_sol  =         0.00000000
  ---------------------------------------------------
  free energy    TOTEN  =      -664.27480064 eV

  energy without entropy =     -664.27480064  energy(sigma->0) =     -664.27480064


--------------------------------------------------------------------------------------------------------




--------------------------------------- Iteration      1(  10)  ---------------------------------------


    POTLOK:  cpu time      0.0086: real time      0.0094
    SETDIJ:  cpu time      2.3363: real time      2.3369
     EDDAV:  cpu time     13.0453: real time     13.0532
 BZINTS: Fermi energy:   11.487723;  182.000000 electrons
         Band energy:-0.133970E+04;  BLOECHL correction:   -0.098852
 BZINTS: Fermi energy:    8.039096;  162.000000 electrons
         Band energy:-0.150224E+04;  BLOECHL correction:   -0.178517
       DOS:  cpu time      0.1934: real time      0.1934
    CHARGE:  cpu time      0.3359: real time      0.3360
    MIXING:  cpu time      0.0024: real time      0.0024
    --------------------------------------------
      LOOP:  cpu time     15.9218: real time     15.9314

 eigenvalue-minimisations  : 29716
 total energy-change (2. order) : 0.2018766E+03  (-0.6057688E+02)
 number of electron     172.0000003 magnetization       6.1127765
 augmentation part       41.2395309 magnetization      -2.4323591

 Broyden mixing:
  rms(total) = 0.82074E+02    rms(broyden)= 0.82074E+02
  rms(prec ) = 0.83108E+02
  weight for this iteration     100.00

 eigenvalues of (default mixing * dielectric matrix)
  average eigenvalue GAMMA=   0.5083
  0.7226  0.7926  0.3491  0.3491  0.3282

 Free energy of the ion-electron system (eV)
  ---------------------------------------------------
  alpha Z        PSCENC =      1478.47565082
  Ewald energy   TEWEN  =    -16459.83277117
  -Hartree energ DENC   =     -4624.28295896
  -exchange      EXHF   =         0.00000000
  -V(xc)+E(xc)   XCENC  =       737.81885496
  PAW double counting   =   5493677.58217904 -5495281.34540246
  entropy T*S    EENTRO =         0.00000000
  eigenvalues    EBANDS =     -1420.96896938
  atomic energy  EATOM  =     21430.15519593
  Solvation  Ediel_sol  =         0.00000000
  ---------------------------------------------------
  free energy    TOTEN  =      -462.39822121 eV

  energy without entropy =     -462.39822121  energy(sigma->0) =     -462.39822121


--------------------------------------------------------------------------------------------------------




--------------------------------------- Iteration      1(  11)  ---------------------------------------


    POTLOK:  cpu time      0.0089: real time      0.0098
    SETDIJ:  cpu time      2.3390: real time      2.3402
     EDDAV:  cpu time     10.8384: real time     10.8468
 BZINTS: Fermi energy:   12.337614;  182.000000 electrons
         Band energy:-0.913060E+03;  BLOECHL correction:   -0.066424
 BZINTS: Fermi energy:    9.777508;  162.000000 electrons
         Band energy:-0.108771E+04;  BLOECHL correction:   -0.081866
       DOS:  cpu time      0.2032: real time      0.2033
    CHARGE:  cpu time      0.3371: real time      0.3373
    MIXING:  cpu time      0.0024: real time      0.0024
    --------------------------------------------
      LOOP:  cpu time     13.7290: real time     13.7398

 eigenvalue-minimisations  : 23968
 total energy-change (2. order) :-0.2884344E+03  (-0.2030230E+02)
 number of electron     172.0000003 magnetization       6.1686181
 augmentation part       33.7625726 magnetization      -1.2260694

 Broyden mixing:
  rms(total) = 0.11672E+03    rms(broyden)= 0.11672E+03
  rms(prec ) = 0.11738E+03
  weight for this iteration     100.00

 eigenvalues of (default mixing * dielectric matrix)
  average eigenvalue GAMMA=   0.4115
  0.6063  0.7835  0.3444  0.3444  0.3397  0.0507

 Free energy of the ion-electron system (eV)
  ---------------------------------------------------
  alpha Z        PSCENC =      1478.47565082
  Ewald energy   TEWEN  =    -16459.83277117
  -Hartree energ DENC   =     -5041.65805490
  -exchange      EXHF   =         0.00000000
  -V(xc)+E(xc)   XCENC  =       752.28771252
  PAW double counting   =   9103274.08447962 -9105183.95895216
  entropy T*S    EENTRO =         0.00000000
  eigenvalues    EBANDS =     -1000.38584421
  atomic energy  EATOM  =     21430.15519593
  Solvation  Ediel_sol  =         0.00000000
  ---------------------------------------------------
  free energy    TOTEN  =      -750.83258354 eV

  energy without entropy =     -750.83258354  energy(sigma->0) =     -750.83258354


--------------------------------------------------------------------------------------------------------




--------------------------------------- Iteration      1(  12)  ---------------------------------------


    POTLOK:  cpu time      0.0086: real time      0.0094
    SETDIJ:  cpu time      2.3396: real time      2.3422
     EDDAV:  cpu time     13.8062: real time     13.8141
 BZINTS: Fermi energy:   11.917799;  182.000000 electrons
         Band energy:-0.934926E+03;  BLOECHL correction:   -0.073013
 BZINTS: Fermi energy:    9.631118;  162.000000 electrons
         Band energy:-0.110602E+04;  BLOECHL correction:   -0.079495
       DOS:  cpu time      0.2042: real time      0.2044
    CHARGE:  cpu time      0.3354: real time      0.3355
    MIXING:  cpu time      0.0025: real time      0.0025
    --------------------------------------------
      LOOP:  cpu time     16.6966: real time     16.7082

 eigenvalue-minimisations  : 31576
 total energy-change (2. order) : 0.2274860E+02  (-0.7558689E+01)
 number of electron     172.0000003 magnetization       7.5070165
 augmentation part       33.9605440 magnetization      -0.0912213

 Broyden mixing:
  rms(total) = 0.11297E+03    rms(broyden)= 0.11297E+03
  rms(prec ) = 0.11366E+03
  weight for this iteration     100.00

 eigenvalues of (default mixing * dielectric matrix)
  average eigenvalue GAMMA=   0.6386
  1.1637  1.1637  0.5639  0.5639  0.5046  0.2553  0.2553

 Free energy of the ion-electron system (eV)
  ---------------------------------------------------
  alpha Z        PSCENC =      1478.47565082
  Ewald energy   TEWEN  =    -16459.83277117
  -Hartree energ DENC   =     -5026.05714346
  -exchange      EXHF   =         0.00000000
  -V(xc)+E(xc)   XCENC  =       751.69755290
  PAW double counting   =   8622745.63711416 -8624627.68630829
  entropy T*S    EENTRO =         0.00000000
  eigenvalues    EBANDS =     -1020.47327933
  atomic energy  EATOM  =     21430.15519593
  Solvation  Ediel_sol  =         0.00000000
  ---------------------------------------------------
  free energy    TOTEN  =      -728.08398843 eV

  energy without entropy =     -728.08398843  energy(sigma->0) =     -728.08398843


--------------------------------------------------------------------------------------------------------




--------------------------------------- Iteration      1(  13)  ---------------------------------------


    POTLOK:  cpu time      0.0084: real time      0.0094
    SETDIJ:  cpu time      2.3209: real time      2.3215
     EDDAV:  cpu time     12.3787: real time     12.3835
 BZINTS: Fermi energy:    4.850645;  182.000000 electrons
         Band energy:-0.226909E+04;  BLOECHL correction:   -0.064507
 BZINTS: Fermi energy:    1.793105;  162.000000 electrons
         Band energy:-0.235590E+04;  BLOECHL correction:   -0.065071
       DOS:  cpu time      0.1926: real time      0.1926
    CHARGE:  cpu time      0.3373: real time      0.3374
    MIXING:  cpu time      0.0026: real time      0.0026
    --------------------------------------------
      LOOP:  cpu time     15.2404: real time     15.2471

 eigenvalue-minimisations  : 27908
 total energy-change (2. order) : 0.1811977E+03  (-0.6239817E+03)
 number of electron     172.0000006 magnetization       7.9039109
 augmentation part       91.9848237 magnetization      -1.4120887

 Broyden mixing:
  rms(total) = 0.44409E+02    rms(broyden)= 0.44409E+02
  rms(prec ) = 0.46193E+02
  weight for this iteration     100.00

 eigenvalues of (default mixing * dielectric matrix)
  average eigenvalue GAMMA=   0.6554
  1.3768  1.3768  0.6676  0.6676  0.4456  0.2598  0.2598  0.1890

 Free energy of the ion-electron system (eV)
  ---------------------------------------------------
  alpha Z        PSCENC =      1478.47565082
  Ewald energy   TEWEN  =    -16459.83277117
  -Hartree energ DENC   =     -4145.59670070
  -exchange      EXHF   =         0.00000000
  -V(xc)+E(xc)   XCENC  =       729.28810392
  PAW double counting   =   1581530.84719334 -1582797.72702593
  entropy T*S    EENTRO =         0.00000000
  eigenvalues    EBANDS =     -2312.49593644
  atomic energy  EATOM  =     21430.15519593
  Solvation  Ediel_sol  =         0.00000000
  ---------------------------------------------------
  free energy    TOTEN  =      -546.88629023 eV

  energy without entropy =     -546.88629023  energy(sigma->0) =     -546.88629023


--------------------------------------------------------------------------------------------------------




--------------------------------------- Iteration      1(  14)  ---------------------------------------


    POTLOK:  cpu time      0.0086: real time      0.0094
    SETDIJ:  cpu time      2.3272: real time      2.3280
     EDDAV:  cpu time     10.3543: real time     10.3590
 BZINTS: Fermi energy:    4.358613;  182.000000 electrons
         Band energy:-0.179047E+04;  BLOECHL correction:   -0.085697
 BZINTS: Fermi energy:    3.786113;  162.000000 electrons
         Band energy:-0.188390E+04;  BLOECHL correction:   -0.009533
       DOS:  cpu time      0.2009: real time      0.2009
    CHARGE:  cpu time      0.3369: real time      0.3370
    MIXING:  cpu time      0.0026: real time      0.0026
    --------------------------------------------
      LOOP:  cpu time     13.2304: real time     13.2369

 eigenvalue-minimisations  : 22552
 total energy-change (2. order) : 0.1110057E+03  (-0.1383779E+03)
 number of electron     172.0000005 magnetization      10.0614043
 augmentation part       83.1642488 magnetization       6.7997954

 Broyden mixing:
  rms(total) = 0.30940E+02    rms(broyden)= 0.30940E+02
  rms(prec ) = 0.32879E+02
  weight for this iteration     100.00

 eigenvalues of (default mixing * dielectric matrix)
  average eigenvalue GAMMA=   0.7761
  1.5988  1.5988  1.4720  0.5149  0.5149  0.5138  0.2547  0.2547  0.2621

 Free energy of the ion-electron system (eV)
  ---------------------------------------------------
  alpha Z        PSCENC =      1478.47565082
  Ewald energy   TEWEN  =    -16459.83277117
  -Hartree energ DENC   =     -4347.16659291
  -exchange      EXHF   =         0.00000000
  -V(xc)+E(xc)   XCENC  =       740.46425790
  PAW double counting   =    806362.65691993  -807803.44868563
  entropy T*S    EENTRO =         0.00000000
  eigenvalues    EBANDS =     -1837.18452661
  atomic energy  EATOM  =     21430.15519593
  Solvation  Ediel_sol  =         0.00000000
  ---------------------------------------------------
  free energy    TOTEN  =      -435.88055174 eV

  energy without entropy =     -435.88055174  energy(sigma->0) =     -435.88055174


--------------------------------------------------------------------------------------------------------




--------------------------------------- Iteration      1(  15)  ---------------------------------------


    POTLOK:  cpu time      0.0086: real time      0.0094
    SETDIJ:  cpu time      2.2490: real time      2.2498
     EDDAV:  cpu time      9.7396: real time      9.7451
 BZINTS: Fermi energy:    9.192813;  182.000000 electrons
         Band energy:-0.182015E+04;  BLOECHL correction:   -0.123985
 BZINTS: Fermi energy:    4.695695;  162.000000 electrons
         Band energy:-0.202516E+04;  BLOECHL correction:   -0.143310
       DOS:  cpu time      0.1934: real time      0.1935
    CHARGE:  cpu time      0.3371: real time      0.3372
    MIXING:  cpu time      0.0027: real time      0.0027
    --------------------------------------------
      LOOP:  cpu time     12.5304: real time     12.5377

 eigenvalue-minimisations  : 20836
 total energy-change (2. order) :-0.8535534E+03  (-0.1726066E+03)
 number of electron     172.0000004 magnetization       9.5176628
 augmentation part       67.4869288 magnetization      -0.2958889

 Broyden mixing:
  rms(total) = 0.36612E+02    rms(broyden)= 0.36612E+02
  rms(prec ) = 0.42008E+02
  weight for this iteration     100.00

 eigenvalues of (default mixing * dielectric matrix)
  average eigenvalue GAMMA=   0.7547
[...]
  288          m_sumb_d                              0.000120                          2   4
  289        strnlr                                3.938964                            1   3
  290          rspher_all                            0.175912                          9   4
  291          phaser                                1.135130                        270   4
  292          rpro_isp                              2.617014                        270   4
  293            fftwav_mpi                            0.560171                    17820   5
  294              fftwav                                0.538482                  17820   6
  295                fft3d                                 0.120545                17820   7
  296            rpromu_acc                            1.121122                     4860   5
  297          m_sumb_d                              0.000014                          1   4
  298        fft3d_mpi                             0.003519                           22   3
  299          fftbrc_mpi                            0.002790                         22   4
  300            fftbas_plan_mpi                       0.002776                       22   5
  301              map_forward                           0.001037                     20   6
  302                map_gather                            0.000204                   10   7
  303                m_alltoallv_z                         0.000151                   10   7
  304                map_scatter                           0.000541                   10   7
  305              map_backward                          0.001108                     24   6
  306                map_gather                            0.000257                   12   7
  307                m_alltoallv_z                         0.000149                   12   7
  308                map_scatter                           0.000495                   12   7
  309        m_sumb_d                              0.000025                            5   3
  310        forhar                                0.001905                            2   3
  311          m_sumb_d                              0.000041                          2   4
  312        strehar                               0.001267                            1   3
  313          m_sumb_d                              0.000004                          1   4
  314        chggra                                0.000793                            1   3
  315          fft3d_mpi                             0.000467                          3   4
  316            fftbrc_mpi                            0.000363                        3   5
  317              fftbas_plan_mpi                       0.000360                      3   6
  318                map_forward                           0.000189                    4   7
  319                  map_gather                            0.000042                  2   8
  320                  m_alltoallv_z                         0.000027                  2   8
  321                  map_scatter                           0.000090                  2   8
  322                map_backward                          0.000085                    2   7
  323                  map_gather                            0.000020                  1   8
  324                  m_alltoallv_z                         0.000012                  1   8
  325                  map_scatter                           0.000036                  1   8
  326          m_sumb_d                              0.000009                          2   4
  327          pothar                                0.000084                          1   4
  328            m_sumb_d                              0.000013                        1   5
  329        brmix                                 0.007320                            1   3
  330          m_sumb_d                              0.000034                          6   4
  331          brpre                                 0.000022                          2   4
  332          setg0                                 0.000833                          1   4
  333          broyd                                 0.005445                          1   4
  334            m_sumb_d                              0.000750                       51   5
  335            brget                                 0.000992                      229   5
  336            brsav                                 0.000211                       49   5
  337        m_bcast_d                             0.000032                            2   3
  338      potlok                                0.030689                              2   2
  339        fft3d_mpi                             0.019779                           36   3
  340          fftbrc_mpi                            0.016712                         36   4
  341            fftbas_plan_mpi                       0.016697                       36   5
  342              map_forward                           0.004638                     40   6
  343                map_gather                            0.001605                   24   7
  344                m_alltoallv_z                         0.001552                   24   7
  345                map_scatter                           0.001290                   24   7
  346              map_backward                          0.004074                     32   6
  347                map_gather                            0.001319                   16   7
  348                m_alltoallv_z                         0.001360                   16   7
  349                map_scatter                           0.001193                   16   7
  350              dfftw_execute                         0.006291                     30   6
  351        m_sumb_d                              0.000026                            5   3
  352        pothar                                0.001210                            2   3
  353          m_sumb_d                              0.000087                          2   4
  354        m_bcast_d                             0.001998                            4   3
  355      potlok_metagga                        0.000000                              1   2
  356      set_dd_magatom                        0.000005                              1   2
  357      set_dd_paw                            2.201226                              1   2
  358        m_sumb_d                              0.003713                            7   3
  359      augmentation_charge                   0.127342                              1   2
  360        fft3d_mpi                             0.036247                            2   3
  361          fftbrc_mpi                            0.033079                          2   4
  362            fftbas_plan_mpi                       0.033077                        2   5
  363              dfftw_execute                         0.022375                      6   6
  364              map_backward                          0.010348                      4   6
  365                map_gather                            0.002286                    2   7
  366                m_alltoallv_z                         0.004762                    2   7
  367                map_scatter                           0.003291                    2   7
  368      fftwav_mpi                            5.113284                           5940   2
  369        fftwav                                5.105880                         5940   3
  370          fft3d                                 4.880671                       5940   4
  371      densta                               11.251089                              1   2
 
 Flat profile
 ============
 
             routine name                   CPU           calls
 ---------------------------------------------------------------
 set_dd_paw                            300.793225         137
 eddav                                 265.156030         139
 raccmu_                               249.089590      529839
 lapack                                240.510560      529839
 m_sumb_d                              193.098564     1610205
 redis_pw                              113.580973     2802951
 m_alltoall_d                           51.794418     7428319
 densta                                 38.988252         140
 phaser                                 35.778981        8730
 fft3d                                  28.129233     2997725
 eccp                                   27.367172      275220
 redis_proj                             24.027782     3548248
 fftwav                                 18.733376     1977268
 orth1                                  17.020993     1589817
 racc0mu_acc                            15.436080      529839
 w1_copy                                15.017942     3061371
 hamiltmu                               14.958357      529839
 overl                                  14.369278     1765754
 setdij_                                13.675190         163
 rpromu_acc                             12.679429      395079
 init_acc                               12.562099           1
 augmentation_charge                    12.393036         137
 total_time                             12.381590           1
 m_bcast_z                              11.783658      537759
 soft_charge                            11.229181         136
 setup_precond                          10.039889      275220
 m_bcast_d                               8.508673     1059957
 overl_mu                                8.188279      529839
 dfftw_execute                           7.708016        3732
 ggemm                                   7.159811      671619
 pw_charge                               5.377733      179894
 vhamil                                  4.719666     1020457
 kinhamil                                4.672331     1020457
 depsum                                  4.407928         136
 fftext_mpi                              4.291765     1020457
 newband                                 4.201708      538179
 apply_precond                           4.142671      745237
 fftwav_mpi                              2.644243     1977268
 m_alltoallv_z                           2.100688        5371
 fft3d_mpi                               1.599530     1025262
 rpro_isp                                1.298093         390
 map_scatter                             1.092343        5371
 set_charge                              1.003301         136
 map_gather                              0.938113        5371
 acc_init_cublas                         0.603150           1
 potlok                                  0.513455         137
 w1_projall                              0.423700      388059
 sphpro_fast                             0.378077           2
 broyd                                   0.368006         135
 elmin                                   0.312890           1
 lincom                                  0.300570        8400
 fftbas_plan_mpi                         0.280478        4805
 rspher_all                              0.261402          14
 brmix                                   0.148054         135
 brget                                   0.116956       27165
 setg0                                   0.116180         137
 truncate_high_frequency_w1              0.102684     1295677
 proall                                  0.078915           1
 acc_cufft_makeplan                      0.072625          19
 acc_init_cusolver                       0.063603           1
 orthch                                  0.042405           1
 brsav                                   0.031145        7577
 map_backward                            0.030602        5066
 map_forward                             0.026476        4544
 force_and_stress                        0.023461           1
 choleski                                0.017552          60
 pothar                                  0.011406         138
 strnlr                                  0.010893           1
 stufak                                  0.010292           1
 fft_gq                                  0.008060         136
 inisym                                  0.004224           1
 fornlr                                  0.003747           1
 brpre                                   0.003279         270
 fftbrc_mpi                              0.002760        4805
 forhar                                  0.001864           2
 strelo                                  0.001831           1
 strkin                                  0.001515           1
 strehar                                 0.001263           1
 forloc                                  0.000989           1
 rsp                                     0.000941           1
 set_dd_magatom                          0.000654         137
 vectorpot                               0.000583         136
 fewald                                  0.000356           1
 chggra                                  0.000233           1
 brgrid                                  0.000190           1
 fordep                                  0.000115           1
 crpa_reader                             0.000067           1
 posmap                                  0.000061           2
 rcp                                     0.000033           1
 potlok_metagga                          0.000008         136
 acc_cufft_makeplans                     0.000008           3
 rotate_active_occupied_orbital          0.000000           1
 redis_pw_over_bands                     0.000000           1
 ---------------------------------------------------------------
  summed up times     1839.027528047562     
 
 Accumulative profile
 ====================
 
             routine name                   CPU           calls
 ---------------------------------------------------------------
 total_time                           1839.027528           1
 elmin                                1779.561525           1
 eddav                                1390.404871         139
 hamiltmu                              308.897727      529839
 set_dd_paw                            301.168368         137
 raccmu_                               272.713948      529839
 lapack                                240.510560      529839
 m_sumb_d                              193.098564     1610205
 redis_pw                              139.224939     2802951
 newband                                62.589040      538179
 m_alltoall_d                           51.794418     7428319
 redis_proj                             50.178234     3548248
 set_charge                             46.927809         136
 fftwav_mpi                             42.277072     1977268
 fftwav                                 39.632829     1977268
 densta                                 38.988252         140
 phaser                                 35.778981        8730
 fft3d                                  28.129233     2997725
 eccp                                   27.367172      275220
 soft_charge                            23.828957         136
 fft3d_mpi                              21.008786     1025262
 setdij_                                20.651442         163
 augmentation_charge                    17.609725         137
 orth1                                  17.020993     1589817
 kinhamil                               16.505757     1020457
 racc0mu_acc                            15.436080      529839
 w1_copy                                15.017942     3061371
 overl                                  14.369278     1765754
 rpromu_acc                             12.679429      395079
 init_acc                               12.562099           1
 fftbrc_mpi                             12.179476        4805
 fftbas_plan_mpi                        12.176717        4805
 fftext_mpi                             11.833426     1020457
 m_bcast_z                              11.783658      537759
 w1_projall                             11.592626      388059
 force_and_stress                       11.162906           1
 setup_precond                          10.039889      275220
 m_bcast_d                               8.508673     1059957
 overl_mu                                8.188279      529839
 dfftw_execute                           7.708016        3732
 ggemm                                   7.159811      671619
 pw_charge                               5.377733      179894
 vhamil                                  4.719666     1020457
 depsum                                  4.443901         136
 apply_precond                           4.142671      745237
 strnlr                                  3.938964           1
 rpro_isp                                3.586162         390
 map_backward                            2.274307        5066
 m_alltoallv_z                           2.100688        5371
 map_forward                             1.913914        4544
 fornlr                                  1.314605           1
 potlok                                  1.256771         137
 map_scatter                             1.092343        5371
 map_gather                              0.938113        5371
 brmix                                   0.860686         135
 fordep                                  0.768731           1
 acc_init_cublas                         0.603150           1
 broyd                                   0.584511         135
 orthch                                  0.397920           1
 sphpro_fast                             0.393406           2
 lincom                                  0.300570        8400
 proall                                  0.298016           1
 rspher_all                              0.261402          14
 fft_gq                                  0.239684         136
 brget                                   0.116956       27165
 setg0                                   0.116180         137
 truncate_high_frequency_w1              0.102684     1295677
 acc_cufft_makeplans                     0.072633           3
 acc_cufft_makeplan                      0.072625          19
 acc_init_cusolver                       0.063603           1
 brsav                                   0.031145        7577
 choleski                                0.017552          60
 pothar                                  0.012539         138
 stufak                                  0.010292           1
 inisym                                  0.004285           1
 brpre                                   0.003279         270
 strelo                                  0.001951           1
 forhar                                  0.001905           2
 strkin                                  0.001527           1
 fewald                                  0.001412           1
 strehar                                 0.001267           1
 forloc                                  0.001022           1
 rsp                                     0.000941           1
 chggra                                  0.000793           1
 set_dd_magatom                          0.000654         137
 vectorpot                               0.000583         136
 brgrid                                  0.000190           1
 crpa_reader                             0.000067           1
 posmap                                  0.000061           2
 rcp                                     0.000033           1
 potlok_metagga                          0.000008         136
 rotate_active_occupied_orbital          0.000000           1
 redis_pw_over_bands                     0.000000           1
 ---------------------------------------------------------------
 
Profiling took   6.405895  3.129878  0.003561  0.003475 seconds
Profiling took   4.190031 seconds
