 vasp.6.3.2 27Jun22 (build Jul  3 2023 11:46:21) complex                         
 executed on    LinuxNV_CrayMPICH date 2024.04.22  03:39:10
 running on    4 total cores
 distrk:  each k-point on    4 cores,    1 groups
 distr:  one band on NCORE=   1 cores,    4 groups


--------------------------------------------------------------------------------------------------------


 INCAR:
   ALGO = Fast
   EDIFF = 0.0013
   EFIELD_PEAD = 0.0 0.0 0.0
   ENCUT = 520.0
   IBRION = 2
   ICHARG = 1
   ISIF = 3
   ISMEAR = 0
   ISPIN = 2
   ISTART = 1
   LCALCEPS = False
   LCALCPOL = False
   LEFG = False
   LORBIT = 11
   LPEAD = False
   LREAL = Auto
   LWAVE = False
   MAGMOM = 2*7.0 24*0.6
   NELM = 1000
   NSW = 99
   PREC = accurate
   SIGMA = 0.2
   SYMPREC = 1e-08

 POTCAR:    PAW_PBE Eu 23Dec2003                  
 POTCAR:    PAW_PBE Sr_sv 07Sep2000               
 POTCAR:    PAW_PBE Ga_d 06Jul2010                
 POTCAR:    PAW_PBE Cu_pv 06Sep2000               
 POTCAR:    PAW_PBE O 08Apr2002                   
 POTCAR:    PAW_PBE Eu 23Dec2003                  
   SHA256 =  ed303d27e7c5191953f9b15539336e6f36d9037c1d2e92e80c13d733697cb93d Eu/POTCAR             
   COPYR  = (c) Copyright 23Dec2003 Georg Kresse                                                    
   COPYR  = This file is part of the software VASP. Any use, copying, and all other rights are regul
   COPYR  = If you do not have a valid VASP license, you may not use, copy or distribute this file. 
   VRHFIN =Eu : [core=Kr4d]                                                                         
   LEXCH  = PE                                                                                      
   EATOM  =  2619.8085 eV,  192.5505 Ry                                                             
                                                                                                    
   TITEL  = PAW_PBE Eu 23Dec2003                                                                    
   LULTRA =        F    use ultrasoft PP ?                                                          
   IUNSCR =        1    unscreen: 0-lin 1-nonlin 2-no                                               
   RPACOR =    2.300    partial core radius                                                         
   POMASS =  151.965; ZVAL   =   17.000    mass and valenz                                          
   RCORE  =    2.800    outmost cutoff radius                                                       
   RWIGS  =    2.800; RWIGS  =    1.482    wigner-seitz radius (au A)                               
   ENMAX  =  249.668; ENMIN  =  187.251 eV                                                          
   RCLOC  =    2.308    cutoff for local pot                                                        
   LCOR   =        T    correct aug charges                                                         
   LPAW   =        T    paw PP                                                                      
   EAUG   =  549.628                                                                                
   DEXC   =    0.000                                                                                
   RMAX   =    2.870    core radius for proj-oper                                                   
   RAUG   =    1.300    factor for augmentation sphere                                              
   RDEP   =    2.887    radius for radial grids                                                     
   RDEPT  =    2.221    core radius for aug-charge                                                  
                                                                                                    
   Atomic configuration                                                                             
   14 entries                                                                                       
     n  l   j            E        occ.                                                              
     1  0  0.50    -48354.7667   2.0000                                                             
     2  0  0.50     -7939.6472   2.0000                                                             
     2  1  1.50     -7072.6637   6.0000                                                             
     3  0  0.50     -1747.1875   2.0000                                                             
     3  1  1.50     -1477.5221   6.0000                                                             
     3  2  2.50     -1117.4686  10.0000                                                             
     4  0  0.50      -346.8682   2.0000                                                             
     4  1  1.50      -258.1962   6.0000                                                             
     4  2  2.50      -134.7724  10.0000                                                             
     5  0  0.50       -44.6510   2.0000                                                             
     6  0  0.50        -3.6227   2.0000                                                             
     5  1  1.50       -23.7639   6.0000                                                             
     5  2  2.50        -1.3130   0.0000                                                             
     4  3  2.50        -2.7310   7.0000                                                             
   Description                                                                                      
     l       E           TYP  RCUT    TYP  RCUT                                                     
     0    -44.6510453     23  2.400                                                                 
     0     -3.6226685     23  2.400                                                                 
     1    -23.7638687     23  2.400                                                                 
     1     27.2116520     23  2.400                                                                 
     2     -1.3129622     23  2.500                                                                 
     2     13.6058260     23  2.500                                                                 
     3     -2.7309948     23  2.800                                                                 
     3     -3.4014565     23  2.800                                                                 
  local pseudopotential read in
  partial core-charges read in
  partial kinetic energy density read in
  atomic valenz-charges read in
  non local Contribution for L=            0  read in
    real space projection operators read in
  non local Contribution for L=            0  read in
    real space projection operators read in
  non local Contribution for L=            1  read in
    real space projection operators read in
  non local Contribution for L=            1  read in
    real space projection operators read in
  non local Contribution for L=            2  read in
    real space projection operators read in
  non local Contribution for L=            2  read in
    real space projection operators read in
  non local Contribution for L=            3  read in
    real space projection operators read in
  non local Contribution for L=            3  read in
    real space projection operators read in
    PAW grid and wavefunctions read in
 
   number of l-projection  operators is LMAX  =            8
   number of lm-projection operators is LMMAX =           32
 
 POTCAR:    PAW_PBE Sr_sv 07Sep2000               
   SHA256 =  a8389d3481648516ee67182ee030b298d280b37e29cbbf2d8595f040d757c710 Sr_sv/POTCAR          
   COPYR  = (c) Copyright 07Sep2000 Georg Kresse                                                    
   COPYR  = This file is part of the software VASP. Any use, copying, and all other rights are regul
   COPYR  = If you do not have a valid VASP license, you may not use, copy or distribute this file. 
   VRHFIN =Sr: 4s4p5s                                                                               
   LEXCH  = PE                                                                                      
   EATOM  =   843.0319 eV,   61.9611 Ry                                                             
                                                                                                    
   TITEL  = PAW_PBE Sr_sv 07Sep2000                                                                 
   LULTRA =        F    use ultrasoft PP ?                                                          
   IUNSCR =        1    unscreen: 0-lin 1-nonlin 2-no                                               
   RPACOR =    2.200    partial core radius                                                         
   POMASS =   87.620; ZVAL   =   10.000    mass and valenz                                          
   RCORE  =    2.500    outmost cutoff radius                                                       
   RWIGS  =    4.040; RWIGS  =    2.138    wigner-seitz radius (au A)                               
   ENMAX  =  229.353; ENMIN  =  172.014 eV                                                          
   RCLOC  =    2.201    cutoff for local pot                                                        
   LCOR   =        T    correct aug charges                                                         
   LPAW   =        T    paw PP                                                                      
   EAUG   =  366.804                                                                                
   DEXC   =    0.000                                                                                
   RMAX   =    2.547    core radius for proj-oper                                                   
   RAUG   =    1.300    factor for augmentation sphere                                              
   RDEP   =    2.562    radius for radial grids                                                     
   RDEPT  =    2.128    core radius for aug-charge                                                  
                                                                                                    
   Atomic configuration                                                                             
   10 entries                                                                                       
     n  l   j            E        occ.                                                              
     1  0  0.50    -15934.8930   2.0000                                                             
     2  0  0.50     -2157.6250   2.0000                                                             
     2  1  1.50     -1917.0034   6.0000                                                             
     3  0  0.50      -333.7288   2.0000                                                             
     3  1  1.50      -256.0992   6.0000                                                             
     3  2  2.50      -127.9971  10.0000                                                             
     4  0  0.50       -40.8953   2.0000                                                             
     5  0  0.50        -3.5257   1.9990                                                             
     4  1  1.50       -22.8179   6.0000                                                             
     4  2  1.50        -1.2815   0.0010                                                             
   Description                                                                                      
     l       E           TYP  RCUT    TYP  RCUT                                                     
     0    -40.8953213     23  2.480                                                                 
     0     -3.5257161     23  2.480                                                                 
     1    -22.8178632     23  2.500                                                                 
     1    -24.1784458     23  2.500                                                                 
     2     -1.2814598     23  2.500                                                                 
     2      0.2279365     23  2.500                                                                 
  local pseudopotential read in
  partial core-charges read in
  partial kinetic energy density read in
  atomic valenz-charges read in
  non local Contribution for L=            0  read in
    real space projection operators read in
  non local Contribution for L=            0  read in
    real space projection operators read in
  non local Contribution for L=            1  read in
    real space projection operators read in
  non local Contribution for L=            1  read in
    real space projection operators read in
  non local Contribution for L=            2  read in
    real space projection operators read in
  non local Contribution for L=            2  read in
    real space projection operators read in
    PAW grid and wavefunctions read in
 
   number of l-projection  operators is LMAX  =            6
   number of lm-projection operators is LMMAX =           18
 
 POTCAR:    PAW_PBE Ga_d 06Jul2010                
   SHA256 =  a60ddf36e14f00ea098d9e3914b3745f1b7105e68786148f49ae384e44b4226c Ga_d/POTCAR           
   COPYR  = (c) Copyright 06Jul2010 Georg Kresse                                                    
   COPYR  = This file is part of the software VASP. Any use, copying, and all other rights are regul
   COPYR  = If you do not have a valid VASP license, you may not use, copy or distribute this file. 
   VRHFIN =Ga: s2p1                                                                                 
   LEXCH  = PE                                                                                      
   EATOM  =  2148.8298 eV,  157.9345 Ry                                                             
                                                                                                    
   TITEL  = PAW_PBE Ga_d 06Jul2010                                                                  
   LULTRA =        F    use ultrasoft PP ?                                                          
   IUNSCR =        1    unscreen: 0-lin 1-nonlin 2-no                                               
   RPACOR =    1.700    partial core radius                                                         
   POMASS =   69.723; ZVAL   =   13.000    mass and valenz                                          
   RCORE  =    2.300    outmost cutoff radius                                                       
   RWIGS  =    2.300; RWIGS  =    1.217    wigner-seitz radius (au A)                               
   ENMAX  =  282.691; ENMIN  =  212.018 eV                                                          
   ICORE  =        3    local potential                                                             
   LCOR   =        T    correct aug charges                                                         
   LPAW   =        T    paw PP                                                                      
   EAUG   =  490.690                                                                                
   DEXC   =    0.000                                                                                
   RMAX   =    2.341    core radius for proj-oper                                                   
   RAUG   =    1.300    factor for augmentation sphere                                              
   RDEP   =    2.413    radius for radial grids                                                     
   RDEPT  =    1.856    core radius for aug-charge                                                  
                                                                                                    
   Atomic configuration                                                                             
    9 entries                                                                                       
     n  l   j            E        occ.                                                              
     1  0  0.50    -10228.7831   2.0000                                                             
     2  0  0.50     -1262.1604   2.0000                                                             
     2  1  1.50     -1098.6333   6.0000                                                             
     3  0  0.50      -148.1110   2.0000                                                             
     3  1  1.50       -98.8436   6.0000                                                             
     3  2  2.50       -19.1549  10.0000                                                             
     4  0  0.50        -8.9483   2.0000                                                             
     4  1  0.50        -2.5791   1.0000                                                             
     4  3  2.50        -2.7416   0.0000                                                             
   Description                                                                                      
     l       E           TYP  RCUT    TYP  RCUT                                                     
     2    -19.1549037     23  2.300                                                                 
     2     -5.4423304     23  2.300                                                                 
     0     -8.9483111     23  2.300                                                                 
     0     68.0291300     23  2.300                                                                 
     1     -2.5790802     23  2.100                                                                 
     1     81.6349560     23  2.300                                                                 
     3      6.8029130     23  2.300                                                                 
  local pseudopotential read in
  partial core-charges read in
  partial kinetic energy density read in
  atomic valenz-charges read in
  non local Contribution for L=            2  read in
    real space projection operators read in
  non local Contribution for L=            2  read in
    real space projection operators read in
  non local Contribution for L=            0  read in
    real space projection operators read in
  non local Contribution for L=            0  read in
    real space projection operators read in
  non local Contribution for L=            1  read in
    real space projection operators read in
  non local Contribution for L=            1  read in
    real space projection operators read in
    PAW grid and wavefunctions read in
 
   number of l-projection  operators is LMAX  =            6
   number of lm-projection operators is LMMAX =           18
 
 POTCAR:    PAW_PBE Cu_pv 06Sep2000               
   SHA256 =  cb7b504e2ea725fe1f25c85a9ac77d4012ce94cd394135b722c4e25ec297f1cb Cu_pv/POTCAR          
   COPYR  = (c) Copyright 06Sep2000 Georg Kresse                                                    
   COPYR  = This file is part of the software VASP. Any use, copying, and all other rights are regul
   COPYR  = If you do not have a valid VASP license, you may not use, copy or distribute this file. 
   VRHFIN =Cu: d10 p1                                                                               
   LEXCH  = PE                                                                                      
   EATOM  =  4120.1201 eV,  302.8203 Ry                                                             
                                                                                                    
   TITEL  = PAW_PBE Cu_pv 06Sep2000                                                                 
   LULTRA =        F    use ultrasoft PP ?                                                          
   IUNSCR =        1    unscreen: 0-lin 1-nonlin 2-no                                               
   RPACOR =    1.500    partial core radius                                                         
   POMASS =   63.546; ZVAL   =   17.000    mass and valenz                                          
   RCORE  =    2.000    outmost cutoff radius                                                       
   RWIGS  =    2.000; RWIGS  =    1.058    wigner-seitz radius (au A)                               
   ENMAX  =  368.648; ENMIN  =  276.486 eV                                                          
   RCLOC  =    1.304    cutoff for local pot                                                        
   LCOR   =        T    correct aug charges                                                         
   LPAW   =        T    paw PP                                                                      
   EAUG   =  758.233                                                                                
   DEXC   =    0.000                                                                                
   RMAX   =    2.046    core radius for proj-oper                                                   
   RAUG   =    1.300    factor for augmentation sphere                                              
   RDEP   =    2.025    radius for radial grids                                                     
   RDEPT  =    1.558    core radius for aug-charge                                                  
                                                                                                    
   Atomic configuration                                                                             
    8 entries                                                                                       
     n  l   j            E        occ.                                                              
     1  0  0.50     -8850.2467   2.0000                                                             
     2  0  0.50     -1062.3498   2.0000                                                             
     2  1  1.50      -916.8226   6.0000                                                             
     3  0  0.50      -114.6929   2.0000                                                             
     3  1  1.50       -72.1325   6.0000                                                             
     3  2  2.50        -5.0394  10.0000                                                             
     4  0  0.50        -4.6097   1.0000                                                             
     4  3  2.50        -1.3606   0.0000                                                             
   Description                                                                                      
     l       E           TYP  RCUT    TYP  RCUT                                                     
     1    -72.1324777     23  1.700                                                                 
     1     -1.3605826     23  1.700                                                                 
     2     -5.0393776     23  2.000                                                                 
     2     -6.3999602     23  2.000                                                                 
     0     -4.6097062     23  1.800                                                                 
     0     14.1620818     23  1.800                                                                 
  local pseudopotential read in
  partial core-charges read in
  partial kinetic energy density read in
  atomic valenz-charges read in
  non local Contribution for L=            1  read in
    real space projection operators read in
  non local Contribution for L=            1  read in
    real space projection operators read in
  non local Contribution for L=            2  read in
    real space projection operators read in
  non local Contribution for L=            2  read in
    real space projection operators read in
  non local Contribution for L=            0  read in
    real space projection operators read in
  non local Contribution for L=            0  read in
    real space projection operators read in
    PAW grid and wavefunctions read in
 
   number of l-projection  operators is LMAX  =            6
   number of lm-projection operators is LMMAX =           18
 
 POTCAR:    PAW_PBE O 08Apr2002                   
   SHA256 =  818f92134a0a090dccd8ba1447fa70422a3b330e708bb4f08108d8ae51209ddf O/POTCAR              
   COPYR  = (c) Copyright 08Apr2002 Georg Kresse                                                    
   COPYR  = This file is part of the software VASP. Any use, copying, and all other rights are regul
   COPYR  = If you do not have a valid VASP license, you may not use, copy or distribute this file. 
   VRHFIN =O: s2p4                                                                                  
   LEXCH  = PE                                                                                      
   EATOM  =   432.3788 eV,   31.7789 Ry                                                             
                                                                                                    
   TITEL  = PAW_PBE O 08Apr2002                                                                     
   LULTRA =        F    use ultrasoft PP ?                                                          
   IUNSCR =        1    unscreen: 0-lin 1-nonlin 2-no                                               
   RPACOR =    1.200    partial core radius                                                         
   POMASS =   16.000; ZVAL   =    6.000    mass and valenz                                          
   RCORE  =    1.520    outmost cutoff radius                                                       
   RWIGS  =    1.550; RWIGS  =    0.820    wigner-seitz radius (au A)                               
   ENMAX  =  400.000; ENMIN  =  300.000 eV                                                          
   ICORE  =        2    local potential                                                             
   LCOR   =        T    correct aug charges                                                         
   LPAW   =        T    paw PP                                                                      
   EAUG   =  605.392                                                                                
   DEXC   =    0.000                                                                                
   RMAX   =    1.553    core radius for proj-oper                                                   
   RAUG   =    1.300    factor for augmentation sphere                                              
   RDEP   =    1.550    radius for radial grids                                                     
   RDEPT  =    1.329    core radius for aug-charge                                                  
                                                                                                    
   Atomic configuration                                                                             
    4 entries                                                                                       
     n  l   j            E        occ.                                                              
     1  0  0.50      -514.6923   2.0000                                                             
     2  0  0.50       -23.9615   2.0000                                                             
     2  1  0.50        -9.0305   4.0000                                                             
     3  2  1.50        -9.5241   0.0000                                                             
   Description                                                                                      
     l       E           TYP  RCUT    TYP  RCUT                                                     
     0    -23.9615318     23  1.200                                                                 
     0     -9.5240782     23  1.200                                                                 
     1     -9.0304911     23  1.520                                                                 
     1      8.1634956     23  1.520                                                                 
     2     -9.5240782      7  1.500                                                                 
  local pseudopotential read in
  partial core-charges read in
  partial kinetic energy density read in
  kinetic energy density of atom read in
  atomic valenz-charges read in
  non local Contribution for L=            0  read in
    real space projection operators read in
  non local Contribution for L=            0  read in
    real space projection operators read in
  non local Contribution for L=            1  read in
    real space projection operators read in
  non local Contribution for L=            1  read in
    real space projection operators read in
    PAW grid and wavefunctions read in
 
   number of l-projection  operators is LMAX  =            4
   number of lm-projection operators is LMMAX =            8
 
 Optimization of the real space projectors (new method)

 maximal supplied QI-value         = 13.42
 optimisation between [QCUT,QGAM] = [ 11.67, 23.35] = [ 38.16,152.62] Ry 
 Optimized for a Real-space Cutoff    1.63 Angstroem

   l    n(q)    QCUT    max X(q) W(low)/X(q) W(high)/X(q)  e(spline) 
   0     11    11.673    10.400    0.14E-04    0.18E-05    0.24E-07
   0     11    11.673    10.768    0.21E-04    0.32E-05    0.49E-07
   1     11    11.673     4.094    0.40E-05    0.13E-04    0.93E-07
   1     11    11.673     4.009    0.11E-04    0.46E-04    0.33E-06
   2     10    11.673    29.030    0.79E-04    0.60E-04    0.70E-06
   2     10    11.673    19.941    0.80E-04    0.60E-04    0.71E-06
   3     10    11.673    88.889    0.23E-03    0.29E-03    0.30E-06
   3     10    11.673    76.102    0.23E-03    0.30E-03    0.30E-06
 Optimization of the real space projectors (new method)

 maximal supplied QI-value         = 15.12
 optimisation between [QCUT,QGAM] = [ 11.64, 23.28] = [ 37.95,151.78] Ry 
 Optimized for a Real-space Cutoff    1.58 Angstroem

   l    n(q)    QCUT    max X(q) W(low)/X(q) W(high)/X(q)  e(spline) 
   0     11    11.641    11.565    0.25E-04    0.45E-05    0.87E-07
   0     11    11.641    10.214    0.38E-04    0.85E-05    0.18E-06
   1     11    11.641   189.983    0.18E-03    0.75E-04    0.37E-06
   1     11    11.641   193.105    0.18E-03    0.75E-04    0.37E-06
   2     10    11.641   115.941    0.51E-04    0.22E-03    0.56E-06
   2     10    11.641    76.444    0.49E-04    0.21E-03    0.55E-06
 Optimization of the real space projectors (new method)

 maximal supplied QI-value         = 16.25
 optimisation between [QCUT,QGAM] = [ 11.54, 23.24] = [ 37.28,151.24] Ry 
 Optimized for a Real-space Cutoff    1.36 Angstroem

   l    n(q)    QCUT    max X(q) W(low)/X(q) W(high)/X(q)  e(spline) 
   2      9    11.539     7.143    0.65E-04    0.19E-03    0.15E-06
   2      9    11.539     5.586    0.13E-03    0.40E-03    0.26E-06
   0      9    11.539    12.382    0.18E-04    0.19E-04    0.34E-07
   0      9    11.539     6.622    0.35E-04    0.38E-04    0.71E-07
   1      9    11.539     7.935    0.18E-03    0.22E-03    0.17E-06
   1      9    11.539     2.425    0.15E-03    0.19E-03    0.16E-06
 Optimization of the real space projectors (new method)

 maximal supplied QI-value         = 18.90
 optimisation between [QCUT,QGAM] = [ 11.53, 23.24] = [ 37.21,151.29] Ry 
 Optimized for a Real-space Cutoff    1.36 Angstroem

   l    n(q)    QCUT    max X(q) W(low)/X(q) W(high)/X(q)  e(spline) 
   1      9    11.527     3.172    0.21E-04    0.38E-04    0.11E-06
   1      9    11.527     4.083    0.67E-04    0.79E-04    0.20E-06
   2      9    11.527    65.342    0.13E-03    0.28E-03    0.26E-06
   2      9    11.527    61.381    0.13E-03    0.29E-03    0.26E-06
   0      9    11.527    65.742    0.32E-04    0.21E-04    0.72E-07
   0      9    11.527    30.431    0.28E-04    0.19E-04    0.65E-07
 Optimization of the real space projectors (new method)

 maximal supplied QI-value         = 24.76
 optimisation between [QCUT,QGAM] = [ 11.64, 23.27] = [ 37.91,151.63] Ry 
 Optimized for a Real-space Cutoff    1.14 Angstroem

   l    n(q)    QCUT    max X(q) W(low)/X(q) W(high)/X(q)  e(spline) 
   0      8    11.635    20.381    0.10E-03    0.33E-03    0.24E-06
   0      8    11.635    15.268    0.11E-03    0.35E-03    0.26E-06
   1      7    11.635     5.964    0.24E-03    0.31E-03    0.30E-06
   1      7    11.635     5.382    0.22E-03    0.25E-03    0.26E-06
  PAW_PBE Eu 23Dec2003                  :
 energy of atom  1       EATOM=-2619.8085
 kinetic energy error for atom=    0.0015 (will be added to EATOM!!)
  PAW_PBE Sr_sv 07Sep2000               :
 energy of atom  2       EATOM= -843.0319
 kinetic energy error for atom=    0.0010 (will be added to EATOM!!)
  PAW_PBE Ga_d 06Jul2010                :
 energy of atom  3       EATOM=-2148.8298
 kinetic energy error for atom=    0.0026 (will be added to EATOM!!)
  PAW_PBE Cu_pv 06Sep2000               :
 energy of atom  4       EATOM=-4120.1201
 kinetic energy error for atom=    0.0541 (will be added to EATOM!!)
  PAW_PBE O 08Apr2002                   :
 energy of atom  5       EATOM= -432.3788
 kinetic energy error for atom=    0.0208 (will be added to EATOM!!)
 
 
 POSCAR: Sr4 Eu2 Ga2 Cu4 O14
  positions in direct lattice
  No initial velocities read in
 exchange correlation table for  LEXCH =        8
   RHO(1)=    0.500       N(1)  =     2000
   RHO(2)=  100.500       N(2)  =     4000

 VTST: version 4.2, (08/11/21)

 CHAIN: initializing optimizer
 
 OPT: Using VASP Conjugate-Gradient optimizer
 CHAIN: Read ICHAIN             0
 
 POSCAR: Sr4 Eu2 Ga2 Cu4 O14
  positions in direct lattice
  No initial velocities read in
 


--------------------------------------------------------------------------------------------------------


 ion  position               nearest neighbor table
   1  0.502  0.500  0.999-  14 2.43  22 2.43  26 2.43  23 2.45  16 2.47  15 2.47  20 2.48  17 2.48
                             4 3.53   5 3.54
   2  0.002  1.000  1.000-  23 2.41  26 2.42  22 2.42  14 2.44  16 2.48  17 2.48  15 2.48  20 2.49
                             6 3.53   3 3.53
   3  0.152  0.166  0.303-  24 2.47  18 2.58  21 2.59  26 2.80  22 2.81  15 2.82  17 2.82  21 2.99
                            18 3.09   9 3.26  10 3.28  10 3.31   8 3.34   9 3.39   7 3.47   2 3.53
   4  0.349  0.364  0.697-  24 2.47  25 2.57  13 2.61  14 2.78  23 2.80  20 2.81  16 2.83  13 2.97
                            25 3.09  11 3.26  12 3.28  12 3.29   8 3.36  11 3.39   7 3.45   1 3.53
   5  0.653  0.638  0.302-  19 2.48  21 2.57  18 2.61  22 2.81  15 2.81  26 2.81  17 2.82  18 2.96
                            21 3.09  10 3.27   9 3.28   9 3.30   7 3.36  10 3.39   8 3.44   1 3.54
   6  0.852  0.833  0.697-  19 2.48  13 2.55  25 2.61  23 2.78  14 2.79  20 2.81  16 2.83  25 2.96
                            13 3.11  12 3.25  11 3.29  11 3.30   7 3.36  12 3.38   8 3.46   2 3.53
   7  0.717  0.178  0.501-  13 1.85  21 1.87  19 1.93  24 1.94   5 3.36   6 3.36   4 3.45   3 3.47
                             4 3.73   3 3.75   6 3.84   5 3.88
   8  0.215  0.824  0.498-  18 1.84  25 1.88  19 1.93  24 1.93   3 3.34   4 3.36   5 3.44   6 3.46
                             5 3.74   6 3.77   3 3.85   4 3.87
   9  0.076  0.572  0.144-  17 1.95  15 1.95  26 1.95  22 1.96   3 3.26   5 3.28   5 3.30   3 3.39

  10  0.576  0.071  0.144-  17 1.94  15 1.94  22 1.95  26 1.95   5 3.27   3 3.28   3 3.31   5 3.39

  11  0.430  0.929  0.856-  20 1.94  16 1.95  23 1.95  14 1.96   4 3.26   6 3.29   6 3.30   4 3.39

  12  0.929  0.427  0.854-  16 1.94  20 1.94  14 1.96  23 1.96   6 3.25   4 3.28   4 3.29   6 3.38

  13  0.858  0.360  0.648-   7 1.85   6 2.55   4 2.61   4 2.97   6 3.11
  14  0.687  0.686  0.873-  12 1.96  11 1.96   1 2.43   2 2.44   4 2.78   6 2.79
  15  0.818  0.814  0.132-  10 1.94   9 1.95   1 2.47   2 2.48   5 2.81   3 2.82
  16  0.687  0.185  0.868-  12 1.94  11 1.95   1 2.47   2 2.48   6 2.83   4 2.83
  17  0.319  0.817  0.132-  10 1.94   9 1.95   1 2.48   2 2.48   5 2.82   3 2.82
  18  0.211  0.644  0.352-   8 1.84   3 2.58   5 2.61   5 2.96   3 3.09
  19  0.863  0.860  0.500-   7 1.93   8 1.93   6 2.48   5 2.48
  20  0.186  0.185  0.867-  11 1.94  12 1.94   1 2.48   2 2.49   4 2.81   6 2.81
  21  0.714  0.212  0.353-   7 1.87   5 2.57   3 2.59   3 2.99   5 3.09
  22  0.316  0.311  0.124-  10 1.95   9 1.96   2 2.42   1 2.43   5 2.81   3 2.81
  23  0.187  0.690  0.874-  11 1.95  12 1.96   2 2.41   1 2.45   6 2.78   4 2.80
  24  0.362  0.143  0.500-   8 1.93   7 1.94   3 2.47   4 2.47
  25  0.360  0.790  0.647-   8 1.88   4 2.57   6 2.61   6 2.96   4 3.09
  26  0.815  0.312  0.124-  10 1.95   9 1.95   2 2.42   1 2.43   3 2.80   5 2.81
 
  LATTYP: Found a triclinic cell.
 ALAT       =    14.5040509833
 B/A-ratio  =     0.3755376717
 C/A-ratio  =     0.3810010995
 COS(alpha) =     0.0004808155
 COS(beta)  =     0.1886803726
 COS(gamma) =     0.5630073077
  
  Lattice vectors:
  
 A1 = (   5.5531750600,  -5.4135300900, -12.2565669600)
 A2 = (   5.3075646200,  -0.0009633200,  -1.2237557600)
 A3 = (   0.2949149800,  -5.3697017000,   1.2714798400)


Analysis of symmetry for initial positions (statically):
=====================================================================
 Subroutine PRICEL returns:
 Original cell was already a primitive cell.
 

 Routine SETGRP: Setting up the symmetry group for a 
 triclinic supercell.


 Subroutine GETGRP returns: Found  1 space group operations
 (whereof  1 operations were pure point group operations)
 out of a pool of  2 trial point group operations.


The static configuration has the point symmetry C_1 .


Analysis of symmetry for dynamics (positions and initial velocities):
=====================================================================
 Subroutine PRICEL returns:
 Original cell was already a primitive cell.
 

 Routine SETGRP: Setting up the symmetry group for a 
 triclinic supercell.


 Subroutine GETGRP returns: Found  1 space group operations
 (whereof  1 operations were pure point group operations)
 out of a pool of  2 trial point group operations.


The dynamic configuration has the point symmetry C_1 .


Analysis of structural, dynamic, and magnetic symmetry:
=====================================================================
 Subroutine PRICEL returns:
 Original cell was already a primitive cell.
 

 Routine SETGRP: Setting up the symmetry group for a 
 triclinic supercell.


 Subroutine GETGRP returns: Found  1 space group operations
 (whereof  1 operations were pure point group operations)
 out of a pool of  2 trial point group operations.


The overall configuration has the point symmetry C_1 .


 Subroutine INISYM returns: Found  1 space group operations
 (whereof  1 operations are pure point group operations),
 and found     1 'primitive' translations


----------------------------------------------------------------------------------------

                                     Primitive cell                                     

  volume of cell :     351.2981

  direct lattice vectors                    reciprocal lattice vectors
     5.307564620 -0.000963320 -1.223755760     0.188230111  0.010151009 -0.000789621
    -0.294914980  5.369701700 -1.271479840    -0.000115581  0.186070355 -0.000647759
     0.049304540  0.042865070 12.304291040     0.018708979  0.020237416  0.081126989

  length of vectors
     5.446817537  5.526059371 12.304464489     0.188505281  0.186071518  0.085680612

  position of ions in fractional coordinates (direct lattice)
     0.502039060  0.500106160  0.999410940
     0.002095650  0.999645850  0.999874710
     0.152022500  0.165624910  0.302504740
     0.349404190  0.363777630  0.696978920
     0.652900790  0.638434290  0.302294140
     0.851906080  0.833255900  0.697304490
     0.716827310  0.177622800  0.500930630
     0.215061230  0.823830720  0.498248590
     0.075799560  0.571766960  0.144018080
     0.575793040  0.071122070  0.143694610
     0.429513180  0.929330330  0.855720290
     0.929083150  0.427028240  0.854148290
     0.858319170  0.359855270  0.647531140
     0.687209040  0.685903120  0.873096190
     0.818134380  0.814368850  0.132029050
     0.686719920  0.184899110  0.868291560
     0.319047400  0.816959250  0.132037210
     0.210891380  0.643532530  0.352358830
     0.862839900  0.859982420  0.500283240
     0.185906000  0.184844750  0.866855000
     0.714277560  0.212338680  0.352983490
     0.315813540  0.310585860  0.124306890
     0.186893540  0.690059730  0.874010580
     0.362364100  0.143437530  0.499568210
     0.359691300  0.790022330  0.647243560
     0.815338030  0.311893730  0.124208650

  ion indices of the primitive-cell ions
   primitive index   ion index
                 1           1
                 2           2
                 3           3
                 4           4
                 5           5
                 6           6
                 7           7
                 8           8
                 9           9
                10          10
                11          11
                12          12
                13          13
                14          14
                15          15
                16          16
                17          17
                18          18
                19          19
                20          20
                21          21
                22          22
                23          23
                24          24
                25          25
                26          26

----------------------------------------------------------------------------------------

 
 
 KPOINTS: Kpoints from vasprun.xml                

Automatic generation of k-mesh.
 Grid dimensions read from file:
 generate k-points for:    4    4    4

 Generating k-lattice:

  Cartesian coordinates                     Fractional coordinates (reciprocal lattice)
     0.047057528  0.002537752 -0.000197405     0.250000000  0.000000000 -0.000000000
    -0.000028895  0.046517589 -0.000161940    -0.000000000  0.250000000  0.000000000
     0.004677245  0.005059354  0.020281747     0.000000000  0.000000000  0.250000000

  Length of vectors
     0.047126320  0.046517880  0.021420153

  Shift w.r.t. Gamma in fractional coordinates (k-lattice)
     0.500000000  0.500000000  0.500000000

 
 Subroutine IBZKPT returns following result:
 ===========================================
 
 Found     32 irreducible k-points:
 
 Following reciprocal coordinates:
            Coordinates               Weight
  0.125000  0.125000  0.125000      2.000000
  0.375000  0.125000  0.125000      2.000000
 -0.375000  0.125000  0.125000      2.000000
 -0.125000  0.125000  0.125000      2.000000
  0.125000  0.375000  0.125000      2.000000
  0.375000  0.375000  0.125000      2.000000
 -0.375000  0.375000  0.125000      2.000000
 -0.125000  0.375000  0.125000      2.000000
  0.125000 -0.375000  0.125000      2.000000
  0.375000 -0.375000  0.125000      2.000000
 -0.375000 -0.375000  0.125000      2.000000
 -0.125000 -0.375000  0.125000      2.000000
  0.125000 -0.125000  0.125000      2.000000
  0.375000 -0.125000  0.125000      2.000000
 -0.375000 -0.125000  0.125000      2.000000
 -0.125000 -0.125000  0.125000      2.000000
  0.125000  0.125000  0.375000      2.000000
  0.375000  0.125000  0.375000      2.000000
 -0.375000  0.125000  0.375000      2.000000
 -0.125000  0.125000  0.375000      2.000000
  0.125000  0.375000  0.375000      2.000000
  0.375000  0.375000  0.375000      2.000000
 -0.375000  0.375000  0.375000      2.000000
 -0.125000  0.375000  0.375000      2.000000
  0.125000 -0.375000  0.375000      2.000000
  0.375000 -0.375000  0.375000      2.000000
 -0.375000 -0.375000  0.375000      2.000000
 -0.125000 -0.375000  0.375000      2.000000
  0.125000 -0.125000  0.375000      2.000000
  0.375000 -0.125000  0.375000      2.000000
 -0.375000 -0.125000  0.375000      2.000000
 -0.125000 -0.125000  0.375000      2.000000
 
 Following cartesian coordinates:
            Coordinates               Weight
  0.025853  0.027057  0.009961      2.000000
  0.072910  0.029595  0.009764      2.000000
 -0.068262  0.021982  0.010356      2.000000
 -0.021205  0.024520  0.010159      2.000000
  0.025824  0.073575  0.009799      2.000000
  0.072882  0.076113  0.009602      2.000000
 -0.068291  0.068499  0.010194      2.000000
 -0.021233  0.071037  0.009997      2.000000
  0.025911 -0.065978  0.010285      2.000000
  0.072968 -0.063440  0.010088      2.000000
 -0.068204 -0.071053  0.010680      2.000000
 -0.021147 -0.068516  0.010482      2.000000
  0.025882 -0.019460  0.010123      2.000000
  0.072939 -0.016922  0.009926      2.000000
 -0.068233 -0.024536  0.010518      2.000000
 -0.021176 -0.021998  0.010321      2.000000
  0.030530  0.032117  0.030243      2.000000
  0.077588  0.034654  0.030046      2.000000
 -0.063585  0.027041  0.030638      2.000000
 -0.016527  0.029579  0.030440      2.000000
  0.030501  0.078634  0.030081      2.000000
  0.077559  0.081172  0.029884      2.000000
 -0.063614  0.073559  0.030476      2.000000
 -0.016556  0.076097  0.030278      2.000000
  0.030588 -0.060918  0.030567      2.000000
  0.077646 -0.058381  0.030369      2.000000
 -0.063527 -0.065994  0.030962      2.000000
 -0.016470 -0.063456  0.030764      2.000000
  0.030559 -0.014401  0.030405      2.000000
  0.077617 -0.011863  0.030207      2.000000
 -0.063556 -0.019476  0.030800      2.000000
 -0.016498 -0.016939  0.030602      2.000000
 


--------------------------------------------------------------------------------------------------------




 Dimension of arrays:
   k-points           NKPTS =     32   k-points in BZ     NKDIM =     32   number of bands    NBANDS=    168
   number of dos      NEDOS =    301   number of ions     NIONS =     26
   non local maximal  LDIM  =      8   non local SUM 2l+1 LMDIM =     32
   total plane-waves  NPLWV = 169344
   max r-space proj   IRMAX =   8750   max aug-charges    IRDMAX=  28462
   dimension x,y,z NGX =    42 NGY =   42 NGZ =   96
   dimension x,y,z NGXF=    84 NGYF=   84 NGZF=  192
   support grid    NGXF=    84 NGYF=   84 NGZF=  192
   ions per type =               2   4   2   4  14
   NGX,Y,Z   is equivalent  to a cutoff of  12.82, 12.64, 12.97 a.u.
   NGXF,Y,Z  is equivalent  to a cutoff of  25.64, 25.27, 25.94 a.u.

 SYSTEM =  unknown system                          
 POSCAR =  Sr4 Eu2 Ga2 Cu4 O14                     

 Startparameter for this run:
   NWRITE =      2    write-flag & timer
   PREC   = accura    normal or accurate (medium, high low for compatibility)
   ISTART =      0    job   : 0-new  1-cont  2-samecut
   ICHARG =      1    charge: 1-file 2-atom 10-const
   ISPIN  =      2    spin polarized calculation?
   LNONCOLLINEAR =      F non collinear calculations
   LSORBIT =      F    spin-orbit coupling
   INIWAV =      1    electr: 0-lowe 1-rand  2-diag
   LASPH  =      F    aspherical Exc in radial PAW
 Electronic Relaxation 1
   ENCUT  =  520.0 eV  38.22 Ry    6.18 a.u.  10.13 10.27 22.88*2*pi/ulx,y,z
   ENINI  =  520.0     initial cutoff
   ENAUG  =  758.2 eV  augmentation charge cutoff
   NELM   =   1000;   NELMIN=  2; NELMDL=  0     # of ELM steps 
   EDIFF  = 0.1E-02   stopping-criterion for ELM
   LREAL  =      T    real-space projection
   NLSPLINE    = F    spline interpolate recip. space projectors
   LCOMPAT=      F    compatible to vasp.4.4
   GGA_COMPAT  = T    GGA compatible to vasp.4.4-vasp.4.6
   LMAXPAW     = -100 max onsite density
   LMAXMIX     =    2 max onsite mixed and CHGCAR
   VOSKOWN=      0    Vosko Wilk Nusair interpolation
   ROPT   =   -0.00025  -0.00025  -0.00025  -0.00025
   ROPT   =   -0.00025
 Ionic relaxation
   EDIFFG = 0.1E-01   stopping-criterion for IOM
   NSW    =     99    number of steps for IOM
   NBLOCK =      1;   KBLOCK =     99    inner block; outer block 
   IBRION =      2    ionic relax: 0-MD 1-quasi-New 2-CG
   NFREE  =      1    steps in history (QN), initial steepest desc. (CG)
   ISIF   =      3    stress and relaxation
   IWAVPR =     11    prediction:  0-non 1-charg 2-wave 3-comb
   ISYM   =      2    0-nonsym 1-usesym 2-fastsym
   LCORR  =      T    Harris-Foulkes like correction to forces

   POTIM  = 0.5000    time-step for ionic-motion
   TEIN   =    0.0    initial temperature
   TEBEG  =    0.0;   TEEND  =   0.0 temperature during run
   SMASS  =  -3.00    Nose mass-parameter (am)
   estimated Nose-frequenzy (Omega)   =  0.10E-29 period in steps = 0.13E+47 mass=  -0.678E-27a.u.
   SCALEE = 1.0000    scale energy and forces
   NPACO  =    256;   APACO  = 10.0  distance and # of slots for P.C.
   PSTRESS=    0.0 pullay stress

  Mass of Ions in am
   POMASS = 151.97 87.62 69.72 63.55 16.00
  Ionic Valenz
   ZVAL   =  17.00 10.00 13.00 17.00  6.00
  Atomic Wigner-Seitz radii
   RWIGS  =  -1.00 -1.00 -1.00 -1.00 -1.00
  virtual crystal weights 
   VCA    =   1.00  1.00  1.00  1.00  1.00
   NELECT =     252.0000    total number of electrons
   NUPDOWN=      -1.0000    fix difference up-down

 DOS related values:
   EMIN   =  10.00;   EMAX   =-10.00  energy-range for DOS
   EFERMI =   0.00
   ISMEAR =     0;   SIGMA  =   0.20  broadening in eV -4-tet -1-fermi 0-gaus

 Electronic relaxation 2 (details)
   IALGO  =     68    algorithm
   LDIAG  =      T    sub-space diagonalisation (order eigenvalues)
   LSUBROT=      F    optimize rotation matrix (better conditioning)
   TURBO    =      0    0=normal 1=particle mesh
   IRESTART =      0    0=no restart 2=restart with 2 vectors
   NREBOOT  =      0    no. of reboots
   NMIN     =      0    reboot dimension
   EREF     =   0.00    reference energy to select bands
   IMIX   =      4    mixing-type and parameters
     AMIX     =   0.40;   BMIX     =  1.00
     AMIX_MAG =   1.60;   BMIX_MAG =  1.00
     AMIN     =   0.10
     WC   =   100.;   INIMIX=   1;  MIXPRE=   1;  MAXMIX= -45

 Intra band minimization:
   WEIMIN = 0.0010     energy-eigenvalue tresh-hold
   EBREAK =  0.19E-05  absolut break condition
   DEPER  =   0.30     relativ break condition  

   TIME   =   0.40     timestep for ELM

  volume/ion in A,a.u.               =      13.51        91.18
  Fermi-wavevector in a.u.,A,eV,Ry     =   1.465491  2.769376 29.220732  2.147663
  Thomas-Fermi vector in A             =   2.581341
 
 Write flags
   LWAVE        =      F    write WAVECAR
   LDOWNSAMPLE  =      F    k-point downsampling of WAVECAR
   LCHARG       =      T    write CHGCAR
   LVTOT        =      F    write LOCPOT, total local potential
   LVHAR        =      F    write LOCPOT, Hartree potential only
   LELF         =      F    write electronic localiz. function (ELF)
   LORBIT       =     11    0 simple, 1 ext, 2 COOP (PROOUT), +10 PAW based schemes


 Dipole corrections
   LMONO  =      F    monopole corrections only (constant potential shift)
   LDIPOL =      F    correct potential (dipole corrections)
   IDIPOL =      0    1-x, 2-y, 3-z, 4-all directions 
   EPSILON=  1.0000000 bulk dielectric constant

 Exchange correlation treatment:
   GGA     =    --    GGA type
   LEXCH   =     8    internal setting for exchange type
   LIBXC   =     F    Libxc                    
   VOSKOWN =     0    Vosko Wilk Nusair interpolation
   LHFCALC =     F    Hartree Fock is set to
   LHFONE  =     F    Hartree Fock one center treatment
   AEXX    =    0.0000 exact exchange contribution

 Linear response parameters
   LEPSILON=     F    determine dielectric tensor
   LRPA    =     F    only Hartree local field effects (RPA)
   LNABLA  =     F    use nabla operator in PAW spheres
   LVEL    =     F    velocity operator in full k-point grid
   CSHIFT  =0.1000    complex shift for real part using Kramers Kronig
   OMEGAMAX=  -1.0    maximum frequency
   DEG_THRESHOLD= 0.2000000E-02 threshold for treating states as degnerate
   RTIME   =   -0.100 relaxation time in fs
  (WPLASMAI=    0.000 imaginary part of plasma frequency in eV, 0.658/RTIME)
   DFIELD  = 0.0000000 0.0000000 0.0000000 field for delta impulse in time
 
  Optional k-point grid parameters
   LKPOINTS_OPT  =     F    use optional k-point grid
   KPOINTS_OPT_MODE=     1    mode for optional k-point grid
 
 Orbital magnetization related:
   ORBITALMAG=     F  switch on orbital magnetization
   LCHIMAG   =     F  perturbation theory with respect to B field
   DQ        =  0.001000  dq finite difference perturbation B field
   LLRAUG    =     F  two centre corrections for induced B field



--------------------------------------------------------------------------------------------------------


 conjugate gradient relaxation of ions
 charge density and potential will be updated during run
 spin polarized calculation
 RMM-DIIS sequential band-by-band and
  variant of blocked Davidson during initial phase
 perform sub-space diagonalisation
    before iterative eigenvector-optimisation
 modified Broyden-mixing scheme, WC =      100.0
 initial mixing is a Kerker type mixing with AMIX =  0.4000 and BMIX =      1.0000
 Hartree-type preconditioning will be used
 using additional bands            42
 real space projection scheme for non local part
 use partial core corrections
 calculate Harris-corrections to forces 
   (improved forces if not selfconsistent)
 use gradient corrections 
 use of overlap-Matrix (Vanderbilt PP)
 Gauss-broadening in eV      SIGMA  =   0.20


--------------------------------------------------------------------------------------------------------


  energy-cutoff  :      520.00
  volume of cell :      351.30
      direct lattice vectors                 reciprocal lattice vectors
     5.307564620 -0.000963320 -1.223755760     0.188230111  0.010151009 -0.000789621
    -0.294914980  5.369701700 -1.271479840    -0.000115581  0.186070355 -0.000647759
     0.049304540  0.042865070 12.304291040     0.018708979  0.020237416  0.081126989

  length of vectors
     5.446817537  5.526059371 12.304464489     0.188505281  0.186071518  0.085680612


 
 k-points in units of 2pi/SCALE and weight: Kpoints from vasprun.xml                
   0.02585294  0.02705735  0.00996120       0.031
   0.07291047  0.02959510  0.00976380       0.031
  -0.06826212  0.02198184  0.01035601       0.031
  -0.02120459  0.02451960  0.01015861       0.031
   0.02582404  0.07357494  0.00979926       0.031
   0.07288157  0.07611269  0.00960186       0.031
  -0.06829101  0.06849943  0.01019407       0.031
  -0.02123348  0.07103718  0.00999667       0.031
   0.02591073 -0.06597783  0.01028508       0.031
   0.07296826 -0.06344008  0.01008768       0.031
  -0.06820433 -0.07105333  0.01067989       0.031
  -0.02114680 -0.06851558  0.01048249       0.031
   0.02588183 -0.01946024  0.01012314       0.031
   0.07293936 -0.01692249  0.00992574       0.031
  -0.06823322 -0.02453575  0.01051795       0.031
  -0.02117569 -0.02199799  0.01032055       0.031
   0.03053018  0.03211670  0.03024295       0.031
   0.07758771  0.03465445  0.03004554       0.031
  -0.06358487  0.02704120  0.03063776       0.031
  -0.01652734  0.02957895  0.03044035       0.031
   0.03050129  0.07863429  0.03008101       0.031
   0.07755882  0.08117204  0.02988360       0.031
  -0.06361377  0.07355879  0.03047582       0.031
  -0.01655624  0.07609654  0.03027841       0.031
   0.03058797 -0.06091848  0.03056683       0.031
   0.07764550 -0.05838072  0.03036942       0.031
  -0.06352708 -0.06599398  0.03096164       0.031
  -0.01646955 -0.06345623  0.03076423       0.031
   0.03055908 -0.01440089  0.03040489       0.031
   0.07761661 -0.01186313  0.03020748       0.031
  -0.06355598 -0.01947639  0.03079970       0.031
  -0.01649845 -0.01693864  0.03060229       0.031
 
 k-points in reciprocal lattice and weights: Kpoints from vasprun.xml                
   0.12500000  0.12500000  0.12500000       0.031
   0.37500000  0.12500000  0.12500000       0.031
  -0.37500000  0.12500000  0.12500000       0.031
  -0.12500000  0.12500000  0.12500000       0.031
   0.12500000  0.37500000  0.12500000       0.031
   0.37500000  0.37500000  0.12500000       0.031
  -0.37500000  0.37500000  0.12500000       0.031
  -0.12500000  0.37500000  0.12500000       0.031
   0.12500000 -0.37500000  0.12500000       0.031
   0.37500000 -0.37500000  0.12500000       0.031
  -0.37500000 -0.37500000  0.12500000       0.031
  -0.12500000 -0.37500000  0.12500000       0.031
   0.12500000 -0.12500000  0.12500000       0.031
   0.37500000 -0.12500000  0.12500000       0.031
  -0.37500000 -0.12500000  0.12500000       0.031
  -0.12500000 -0.12500000  0.12500000       0.031
   0.12500000  0.12500000  0.37500000       0.031
   0.37500000  0.12500000  0.37500000       0.031
  -0.37500000  0.12500000  0.37500000       0.031
  -0.12500000  0.12500000  0.37500000       0.031
   0.12500000  0.37500000  0.37500000       0.031
   0.37500000  0.37500000  0.37500000       0.031
  -0.37500000  0.37500000  0.37500000       0.031
  -0.12500000  0.37500000  0.37500000       0.031
   0.12500000 -0.37500000  0.37500000       0.031
   0.37500000 -0.37500000  0.37500000       0.031
  -0.37500000 -0.37500000  0.37500000       0.031
  -0.12500000 -0.37500000  0.37500000       0.031
   0.12500000 -0.12500000  0.37500000       0.031
   0.37500000 -0.12500000  0.37500000       0.031
  -0.37500000 -0.12500000  0.37500000       0.031
  -0.12500000 -0.12500000  0.37500000       0.031
 
 position of ions in fractional coordinates (direct lattice) 
   0.50203906  0.50010616  0.99941094
   0.00209565  0.99964585  0.99987471
   0.15202250  0.16562491  0.30250474
   0.34940419  0.36377763  0.69697892
   0.65290079  0.63843429  0.30229414
   0.85190608  0.83325590  0.69730449
   0.71682731  0.17762280  0.50093063
   0.21506123  0.82383072  0.49824859
   0.07579956  0.57176696  0.14401808
   0.57579304  0.07112207  0.14369461
   0.42951318  0.92933033  0.85572029
   0.92908315  0.42702824  0.85414829
   0.85831917  0.35985527  0.64753114
   0.68720904  0.68590312  0.87309619
   0.81813438  0.81436885  0.13202905
   0.68671992  0.18489911  0.86829156
   0.31904740  0.81695925  0.13203721
   0.21089138  0.64353253  0.35235883
   0.86283990  0.85998242  0.50028324
   0.18590600  0.18484475  0.86685500
   0.71427756  0.21233868  0.35298349
   0.31581354  0.31058586  0.12430689
   0.18689354  0.69005973  0.87401058
   0.36236410  0.14343753  0.49956821
   0.35969130  0.79002233  0.64724356
   0.81533803  0.31189373  0.12420865
 
 position of ions in cartesian coordinates  (Angst):
   2.56639145  2.72777709 11.04679498
  -0.23438938  5.41065770 11.02915533
   0.77293883  0.90217680  3.32547922
   1.78156607  1.98291682  7.68571017
   3.29193377  3.44053060  2.10876765
   4.31018720  4.50340497  6.47784434
   3.77692180  0.97456334  5.06053090
   0.92305727  4.44487551  4.81992909
   0.24078917  3.07631834  0.95229006
   3.04216860  0.38750911  0.97299997
   2.04778642  5.02649340  8.82178749
   4.84734522  2.32873239  8.82976050
   4.48138397  1.95924509  6.45948985
   3.48817089  3.71985848  9.02974162
   4.10864115  4.37778911 -0.41212638
   3.63309155  1.02941091  9.60823911
   1.45894121  4.39217991  0.19544095
   0.94690513  3.47047845  3.25920742
   4.35062306  4.63846255  4.00627498
   0.97493451  1.02953988 10.20350630
   3.74585614  1.15463796  3.19912596
   1.59073324  1.67277761  0.74812585
   0.83153328  3.74269939  9.64797147
   1.90559998  0.79128170  5.52100957
   1.70800744  4.26958189  6.51920137
   4.24160120  1.67931507  0.13395818
 


--------------------------------------------------------------------------------------------------------


 k-point   1 :   0.1250 0.1250 0.1250  plane waves:    9443
 k-point   2 :   0.3750 0.1250 0.1250  plane waves:    9465
 k-point   3 :  -0.3750 0.1250 0.1250  plane waves:    9469
 k-point   4 :  -0.1250 0.1250 0.1250  plane waves:    9445
 k-point   5 :   0.1250 0.3750 0.1250  plane waves:    9437
 k-point   6 :   0.3750 0.3750 0.1250  plane waves:    9469
 k-point   7 :  -0.3750 0.3750 0.1250  plane waves:    9472
 k-point   8 :  -0.1250 0.3750 0.1250  plane waves:    9445
 k-point   9 :   0.1250-0.3750 0.1250  plane waves:    9433
 k-point  10 :   0.3750-0.3750 0.1250  plane waves:    9471
 k-point  11 :  -0.3750-0.3750 0.1250  plane waves:    9474
 k-point  12 :  -0.1250-0.3750 0.1250  plane waves:    9435
 k-point  13 :   0.1250-0.1250 0.1250  plane waves:    9450
 k-point  14 :   0.3750-0.1250 0.1250  plane waves:    9469
 k-point  15 :  -0.3750-0.1250 0.1250  plane waves:    9466
 k-point  16 :  -0.1250-0.1250 0.1250  plane waves:    9445
 k-point  17 :   0.1250 0.1250 0.3750  plane waves:    9468
 k-point  18 :   0.3750 0.1250 0.3750  plane waves:    9457
 k-point  19 :  -0.3750 0.1250 0.3750  plane waves:    9472
 k-point  20 :  -0.1250 0.1250 0.3750  plane waves:    9471
 k-point  21 :   0.1250 0.3750 0.3750  plane waves:    9437
 k-point  22 :   0.3750 0.3750 0.3750  plane waves:    9474
 k-point  23 :  -0.3750 0.3750 0.3750  plane waves:    9471
 k-point  24 :  -0.1250 0.3750 0.3750  plane waves:    9445
 k-point  25 :   0.1250-0.3750 0.3750  plane waves:    9448
 k-point  26 :   0.3750-0.3750 0.3750  plane waves:    9469
 k-point  27 :  -0.3750-0.3750 0.3750  plane waves:    9466
 k-point  28 :  -0.1250-0.3750 0.3750  plane waves:    9446
 k-point  29 :   0.1250-0.1250 0.3750  plane waves:    9475
 k-point  30 :   0.3750-0.1250 0.3750  plane waves:    9464
 k-point  31 :  -0.3750-0.1250 0.3750  plane waves:    9463
 k-point  32 :  -0.1250-0.1250 0.3750  plane waves:    9447

 maximum and minimum number of plane-waves per node :      9475     9433

 maximum number of plane-waves:      9475
 maximum index in each direction: 
   IXMAX=   10   IYMAX=   10   IZMAX=   22
   IXMIN=  -10   IYMIN=  -10   IZMIN=  -23


 serial   3D FFT for wavefunctions
 parallel 3D FFT for charge:
    minimum data exchange during FFTs selected (reduces bandwidth)


 total amount of memory used by VASP MPI-rank0   537819. kBytes
=======================================================================

   base      :      30000. kBytes
   nonlr-proj:      21095. kBytes
   fftplans  :      12178. kBytes
   grid      :      49137. kBytes
   one-center:       2555. kBytes
   wavefun   :     422854. kBytes
 
     INWAV:  cpu time      0.0002: real time      0.0006
 Broyden mixing: mesh for mixing (old mesh)
   NGX = 21   NGY = 21   NGZ = 45
  (NGX  = 84   NGY  = 84   NGZ  =192)
  gives a total of  19845 points

 initial charge density was supplied:
 charge density of overlapping atoms calculated
 number of electron     252.0000000 magnetization      28.4000000
 keeping initial charge density in first step


--------------------------------------------------------------------------------------------------------


 Maximum index for non-local projection operator          8450
 Maximum index for augmentation-charges          6876 (set IRDMAX)


--------------------------------------------------------------------------------------------------------


 First call to EWALD:  gamma=   0.251
 Maximum number of real-space cells 3x 3x 2
 Maximum number of reciprocal cells 2x 2x 4

    FEWALD:  cpu time      0.0013: real time      0.0013


--------------------------------------- Iteration      1(   1)  ---------------------------------------


    POTLOK:  cpu time      0.1002: real time      0.1589
    SETDIJ:  cpu time      0.0341: real time      0.0341
     EDDAV:  cpu time     14.8220: real time     14.8331
       DOS:  cpu time      0.0025: real time      0.0025
    --------------------------------------------
      LOOP:  cpu time     14.9587: real time     15.0286

 eigenvalue-minimisations  : 32864
 total energy-change (2. order) : 0.3998639E+04  (-0.1132997E+05)
 number of electron     252.0000000 magnetization      28.4000000
 augmentation part      252.0000000 magnetization      28.4000000

 Free energy of the ion-electron system (eV)
  ---------------------------------------------------
  alpha Z        PSCENC =      1655.07854144
  Ewald energy   TEWEN  =    -19712.19225814
  -Hartree energ DENC   =    -14428.71219923
  -exchange      EXHF   =         0.00000000
  -V(xc)+E(xc)   XCENC  =      1226.00765857
  PAW double counting   =     28930.62873459   -30452.40242337
  entropy T*S    EENTRO =        -0.07296540
  eigenvalues    EBANDS =      1337.63629681
  atomic energy  EATOM  =     35442.66766395
  Solvation  Ediel_sol  =         0.00000000
  ---------------------------------------------------
  free energy    TOTEN  =      3998.63904921 eV

  energy without entropy =     3998.71201461  energy(sigma->0) =     3998.67553191


--------------------------------------------------------------------------------------------------------




--------------------------------------- Iteration      1(   2)  ---------------------------------------


     EDDAV:  cpu time     11.8280: real time     11.8388
       DOS:  cpu time      0.0027: real time      0.0027
    --------------------------------------------
      LOOP:  cpu time     11.8307: real time     11.8415

 eigenvalue-minimisations  : 24888
 total energy-change (2. order) :-0.3048307E+04  (-0.2673267E+04)
 number of electron     252.0000000 magnetization      28.4000000
 augmentation part      252.0000000 magnetization      28.4000000

 Free energy of the ion-electron system (eV)
  ---------------------------------------------------
  alpha Z        PSCENC =      1655.07854144
  Ewald energy   TEWEN  =    -19712.19225814
  -Hartree energ DENC   =    -14428.71219923
  -exchange      EXHF   =         0.00000000
  -V(xc)+E(xc)   XCENC  =      1226.00765857
  PAW double counting   =     28930.62873459   -30452.40242337
  entropy T*S    EENTRO =        -0.17132372
  eigenvalues    EBANDS =     -1710.57230549
  atomic energy  EATOM  =     35442.66766395
  Solvation  Ediel_sol  =         0.00000000
  ---------------------------------------------------
  free energy    TOTEN  =       950.33208859 eV

  energy without entropy =      950.50341231  energy(sigma->0) =      950.41775045


--------------------------------------------------------------------------------------------------------




--------------------------------------- Iteration      1(   3)  ---------------------------------------


     EDDAV:  cpu time     12.2023: real time     12.2128
       DOS:  cpu time      0.0026: real time      0.0026
    --------------------------------------------
      LOOP:  cpu time     12.2049: real time     12.2155

 eigenvalue-minimisations  : 25928
 total energy-change (2. order) :-0.9669400E+03  (-0.8241286E+03)
 number of electron     252.0000000 magnetization      28.4000000
 augmentation part      252.0000000 magnetization      28.4000000

 Free energy of the ion-electron system (eV)
  ---------------------------------------------------
  alpha Z        PSCENC =      1655.07854144
  Ewald energy   TEWEN  =    -19712.19225814
  -Hartree energ DENC   =    -14428.71219923
  -exchange      EXHF   =         0.00000000
  -V(xc)+E(xc)   XCENC  =      1226.00765857
  PAW double counting   =     28930.62873459   -30452.40242337
  entropy T*S    EENTRO =        -0.17078581
  eigenvalues    EBANDS =     -2677.51281994
  atomic energy  EATOM  =     35442.66766395
  Solvation  Ediel_sol  =         0.00000000
  ---------------------------------------------------
  free energy    TOTEN  =       -16.60788795 eV

  energy without entropy =      -16.43710214  energy(sigma->0) =      -16.52249504


--------------------------------------------------------------------------------------------------------




--------------------------------------- Iteration      1(   4)  ---------------------------------------


     EDDAV:  cpu time     12.2404: real time     12.2455
       DOS:  cpu time      0.0030: real time      0.0030
    --------------------------------------------
      LOOP:  cpu time     12.2434: real time     12.2484

 eigenvalue-minimisations  : 25784
 total energy-change (2. order) :-0.1735135E+03  (-0.1649027E+03)
 number of electron     252.0000000 magnetization      28.4000000
 augmentation part      252.0000000 magnetization      28.4000000

 Free energy of the ion-electron system (eV)
  ---------------------------------------------------
  alpha Z        PSCENC =      1655.07854144
  Ewald energy   TEWEN  =    -19712.19225814
  -Hartree energ DENC   =    -14428.71219923
  -exchange      EXHF   =         0.00000000
  -V(xc)+E(xc)   XCENC  =      1226.00765857
  PAW double counting   =     28930.62873459   -30452.40242337
  entropy T*S    EENTRO =        -0.68411904
  eigenvalues    EBANDS =     -2850.51297143
  atomic energy  EATOM  =     35442.66766395
  Solvation  Ediel_sol  =         0.00000000
  ---------------------------------------------------
  free energy    TOTEN  =      -190.12137266 eV

  energy without entropy =     -189.43725362  energy(sigma->0) =     -189.77931314


--------------------------------------------------------------------------------------------------------




--------------------------------------- Iteration      1(   5)  ---------------------------------------


     EDDAV:  cpu time     15.2454: real time     15.2532
       DOS:  cpu time      0.0029: real time      0.0029
    CHARGE:  cpu time      0.3220: real time      0.3222
    MIXING:  cpu time      0.0028: real time      0.0028
    --------------------------------------------
      LOOP:  cpu time     15.5730: real time     15.5811

 eigenvalue-minimisations  : 34192
 total energy-change (2. order) :-0.1564757E+02  (-0.1505581E+02)
 number of electron     252.0000003 magnetization      21.3218267
 augmentation part       76.9649821 magnetization      19.2638082

 Broyden mixing:
  rms(total) = 0.66727E+01    rms(broyden)= 0.66720E+01
  rms(prec ) = 0.82112E+01
  weight for this iteration     100.00

 Free energy of the ion-electron system (eV)
  ---------------------------------------------------
  alpha Z        PSCENC =      1655.07854144
  Ewald energy   TEWEN  =    -19712.19225814
  -Hartree energ DENC   =    -14428.71219923
  -exchange      EXHF   =         0.00000000
  -V(xc)+E(xc)   XCENC  =      1226.00765857
  PAW double counting   =     28930.62873459   -30452.40242337
  entropy T*S    EENTRO =        -0.72695755
  eigenvalues    EBANDS =     -2866.11770349
  atomic energy  EATOM  =     35442.66766395
  Solvation  Ediel_sol  =         0.00000000
  ---------------------------------------------------
  free energy    TOTEN  =      -205.76894324 eV

  energy without entropy =     -205.04198569  energy(sigma->0) =     -205.40546446


--------------------------------------------------------------------------------------------------------




--------------------------------------- Iteration      1(   6)  ---------------------------------------


    POTLOK:  cpu time      0.0100: real time      0.0111
    SETDIJ:  cpu time      0.0339: real time      0.0339
    EDDIAG:  cpu time      0.7869: real time      0.7877
  RMM-DIIS:  cpu time      6.2681: real time      6.2759
    ORTHCH:  cpu time      0.3082: real time      0.3084
       DOS:  cpu time      0.0030: real time      0.0030
    CHARGE:  cpu time      0.3177: real time      0.3178
    MIXING:  cpu time      0.0063: real time      0.0096
    --------------------------------------------
      LOOP:  cpu time      7.7341: real time      7.7475

 eigenvalue-minimisations  : 30385
 total energy-change (2. order) :-0.2848567E+03  (-0.6014631E+02)
 number of electron     251.9999998 magnetization      20.2977891
 augmentation part       93.8249832 magnetization      17.8633468

 Broyden mixing:
  rms(total) = 0.21546E+02    rms(broyden)= 0.21545E+02
  rms(prec ) = 0.24649E+02
  weight for this iteration     100.00

 eigenvalues of (default mixing * dielectric matrix)
  average eigenvalue GAMMA=   0.1098
  0.1098

 Free energy of the ion-electron system (eV)
  ---------------------------------------------------
  alpha Z        PSCENC =      1655.07854144
  Ewald energy   TEWEN  =    -19712.19225814
  -Hartree energ DENC   =    -14088.65504954
  -exchange      EXHF   =         0.00000000
  -V(xc)+E(xc)   XCENC  =      1222.97604127
  PAW double counting   =     30159.28925978   -31581.16020015
  entropy T*S    EENTRO =        -0.37500107
  eigenvalues    EBANDS =     -3588.25462161
  atomic energy  EATOM  =     35442.66766395
  Solvation  Ediel_sol  =         0.00000000
  ---------------------------------------------------
  free energy    TOTEN  =      -490.62562408 eV

  energy without entropy =     -490.25062300  energy(sigma->0) =     -490.43812354


--------------------------------------------------------------------------------------------------------




--------------------------------------- Iteration      1(   7)  ---------------------------------------


    POTLOK:  cpu time      0.0100: real time      0.0104
    SETDIJ:  cpu time      0.0349: real time      0.0350
    EDDIAG:  cpu time      0.7833: real time      0.7836
  RMM-DIIS:  cpu time      6.6289: real time      6.6319
    ORTHCH:  cpu time      0.3088: real time      0.3092
       DOS:  cpu time      0.0029: real time      0.0029
    CHARGE:  cpu time      0.3136: real time      0.3137
    MIXING:  cpu time      0.0034: real time      0.0034
    --------------------------------------------
      LOOP:  cpu time      8.0858: real time      8.0901

 eigenvalue-minimisations  : 32257
 total energy-change (2. order) : 0.2254045E+03  (-0.1504923E+02)
 number of electron     252.0000004 magnetization      19.1872572
 augmentation part       90.1300608 magnetization      16.1348467

 Broyden mixing:
  rms(total) = 0.11270E+02    rms(broyden)= 0.11269E+02
  rms(prec ) = 0.13838E+02
  weight for this iteration     100.00

 eigenvalues of (default mixing * dielectric matrix)
  average eigenvalue GAMMA=   0.2937
  0.2937  0.2937

 Free energy of the ion-electron system (eV)
  ---------------------------------------------------
  alpha Z        PSCENC =      1655.07854144
  Ewald energy   TEWEN  =    -19712.19225814
  -Hartree energ DENC   =    -14185.84417677
  -exchange      EXHF   =         0.00000000
  -V(xc)+E(xc)   XCENC  =      1223.99125183
  PAW double counting   =     30736.10173434   -32211.91881233
  entropy T*S    EENTRO =        -0.52651332
  eigenvalues    EBANDS =     -3212.57853636
  atomic energy  EATOM  =     35442.66766395
  Solvation  Ediel_sol  =         0.00000000
  ---------------------------------------------------
  free energy    TOTEN  =      -265.22110536 eV

  energy without entropy =     -264.69459204  energy(sigma->0) =     -264.95784870


--------------------------------------------------------------------------------------------------------




--------------------------------------- Iteration      1(   8)  ---------------------------------------


    POTLOK:  cpu time      0.0100: real time      0.0104
    SETDIJ:  cpu time      0.0331: real time      0.0331
    EDDIAG:  cpu time      0.7862: real time      0.7867
  RMM-DIIS:  cpu time      6.2654: real time      6.2690
    ORTHCH:  cpu time      0.3088: real time      0.3089
       DOS:  cpu time      0.0026: real time      0.0026
    CHARGE:  cpu time      0.3117: real time      0.3119
    MIXING:  cpu time      0.0034: real time      0.0034
    --------------------------------------------
      LOOP:  cpu time      7.7212: real time      7.7259

 eigenvalue-minimisations  : 29891
 total energy-change (2. order) : 0.7484659E+02  (-0.1140382E+02)
 number of electron     252.0000002 magnetization      17.3576889
 augmentation part       79.9009012 magnetization      15.2110199

 Broyden mixing:
  rms(total) = 0.85744E+01    rms(broyden)= 0.85733E+01
  rms(prec ) = 0.96733E+01
  weight for this iteration     100.00

 eigenvalues of (default mixing * dielectric matrix)
  average eigenvalue GAMMA=   0.2786
  0.3418  0.2469  0.2469

 Free energy of the ion-electron system (eV)
  ---------------------------------------------------
  alpha Z        PSCENC =      1655.07854144
  Ewald energy   TEWEN  =    -19712.19225814
  -Hartree energ DENC   =    -14108.74038188
  -exchange      EXHF   =         0.00000000
  -V(xc)+E(xc)   XCENC  =      1222.56092678
  PAW double counting   =     31059.94076447   -32590.04066985
  entropy T*S    EENTRO =        -0.24120180
  eigenvalues    EBANDS =     -3159.40790456
  atomic energy  EATOM  =     35442.66766395
  Solvation  Ediel_sol  =         0.00000000
  ---------------------------------------------------
  free energy    TOTEN  =      -190.37451960 eV

  energy without entropy =     -190.13331779  energy(sigma->0) =     -190.25391870


--------------------------------------------------------------------------------------------------------




--------------------------------------- Iteration      1(   9)  ---------------------------------------


    POTLOK:  cpu time      0.0098: real time      0.0102
    SETDIJ:  cpu time      0.0326: real time      0.0326
    EDDIAG:  cpu time      0.7849: real time      0.7851
  RMM-DIIS:  cpu time      6.7297: real time      6.7336
    ORTHCH:  cpu time      0.3082: real time      0.3085
       DOS:  cpu time      0.0028: real time      0.0028
    CHARGE:  cpu time      0.3092: real time      0.3093
    MIXING:  cpu time      0.0036: real time      0.0036
    --------------------------------------------
      LOOP:  cpu time      8.1809: real time      8.1857

 eigenvalue-minimisations  : 32436
 total energy-change (2. order) :-0.3443078E+02  (-0.1938308E+01)
 number of electron     252.0000000 magnetization      16.2529285
 augmentation part       84.4685458 magnetization      15.1496178

 Broyden mixing:
  rms(total) = 0.88712E+01    rms(broyden)= 0.88710E+01
  rms(prec ) = 0.11660E+02
  weight for this iteration     100.00

 eigenvalues of (default mixing * dielectric matrix)
  average eigenvalue GAMMA=   0.2890
  0.4820  0.3183  0.1778  0.1778

 Free energy of the ion-electron system (eV)
  ---------------------------------------------------
  alpha Z        PSCENC =      1655.07854144
  Ewald energy   TEWEN  =    -19712.19225814
  -Hartree energ DENC   =    -14153.27410442
  -exchange      EXHF   =         0.00000000
  -V(xc)+E(xc)   XCENC  =      1223.62511181
  PAW double counting   =     31977.96703030   -33528.99917909
  entropy T*S    EENTRO =        -0.40257554
  eigenvalues    EBANDS =     -3129.27552496
  atomic energy  EATOM  =     35442.66766395
  Solvation  Ediel_sol  =         0.00000000
  ---------------------------------------------------
  free energy    TOTEN  =      -224.80529464 eV

  energy without entropy =     -224.40271910  energy(sigma->0) =     -224.60400687


--------------------------------------------------------------------------------------------------------




--------------------------------------- Iteration      1(  10)  ---------------------------------------


    POTLOK:  cpu time      0.0099: real time      0.0104
    SETDIJ:  cpu time      0.0332: real time      0.0332
    EDDIAG:  cpu time      0.7861: real time      0.7865
  RMM-DIIS:  cpu time      6.3536: real time      6.3569
    ORTHCH:  cpu time      0.3083: real time      0.3084
       DOS:  cpu time      0.0024: real time      0.0024
    CHARGE:  cpu time      0.3078: real time      0.3079
    MIXING:  cpu time      0.0032: real time      0.0032
    --------------------------------------------
      LOOP:  cpu time      7.8044: real time      7.8089

 eigenvalue-minimisations  : 30987
 total energy-change (2. order) : 0.2097060E+02  (-0.1575497E+01)
 number of electron     252.0000001 magnetization      11.9996805
 augmentation part       80.2416868 magnetization      10.8029614

 Broyden mixing:
  rms(total) = 0.68083E+01    rms(broyden)= 0.68082E+01
  rms(prec ) = 0.85081E+01
[...]
  294              map_forward                           0.004446                     80   6
  295                map_gather                            0.000931                   40   7
  296                m_alltoallv_z                         0.000551                   40   7
  297                map_scatter                           0.002317                   40   7
  298              map_backward                          0.004785                     96   6
  299                map_gather                            0.001166                   48   7
  300                m_alltoallv_z                         0.000553                   48   7
  301                map_scatter                           0.002311                   48   7
  302        m_sumb_d                              0.000116                           20   3
  303        forhar                                0.012904                            8   3
  304          m_sumb_d                              0.000252                          8   4
  305        strehar                               0.006978                            4   3
  306          m_sumb_d                              0.000113                          4   4
  307        chggra                                0.003273                            4   3
  308          fft3d_mpi                             0.001970                         12   4
  309            fftbrc_mpi                            0.001555                       12   5
  310              fftbas_plan_mpi                       0.001552                     12   6
  311                map_forward                           0.000822                   16   7
  312                  map_gather                            0.000184                  8   8
  313                  m_alltoallv_z                         0.000111                  8   8
  314                  map_scatter                           0.000402                  8   8
  315                map_backward                          0.000391                    8   7
  316                  map_gather                            0.000095                  4   8
  317                  m_alltoallv_z                         0.000044                  4   8
  318                  map_scatter                           0.000187                  4   8
  319          m_sumb_d                              0.000036                          8   4
  320          pothar                                0.000337                          4   4
  321            m_sumb_d                              0.000040                        4   5
  322        brmix                                 0.029626                            4   3
  323          m_sumb_d                              0.000191                         24   4
  324          brpre                                 0.000135                          8   4
  325          setg0                                 0.004913                          4   4
  326          broyd                                 0.018412                          4   4
  327            m_sumb_d                              0.002256                      144   5
  328            brget                                 0.004028                      616   5
  329            brsav                                 0.000869                      136   5
  330        m_bcast_d                             0.000102                            8   3
  331      potlok                                0.028142                              4   2
  332        fft3d_mpi                             0.017971                          104   3
  333          fftbrc_mpi                            0.014111                        104   4
  334            fftbas_plan_mpi                       0.014061                      104   5
  335              map_forward                           0.006172                    112   6
  336                map_gather                            0.001434                   64   7
  337                m_alltoallv_z                         0.000749                   64   7
  338                map_scatter                           0.003214                   64   7
  339              map_backward                          0.004840                     96   6
  340                map_gather                            0.001197                   48   7
  341                m_alltoallv_z                         0.000564                   48   7
  342                map_scatter                           0.002321                   48   7
  343        m_sumb_d                              0.000103                           20   3
  344        pothar                                0.000368                            4   3
  345          m_sumb_d                              0.000039                          4   4
  346        m_bcast_d                             0.000101                            8   3
  347      potlok_metagga                        0.000001                              4   2
  348      set_dd_magatom                        0.000014                              4   2
  349      set_dd_paw                            0.094916                              4   2
  350        m_sumb_d                              0.013554                           28   3
  351      wavpre_noio                           0.252916                              3   2
  352        stufak                                0.044063                            3   3
  353      densta                                0.024895                              1   2
  354        m_sumb_d                              0.001611                           41   3
 
 Flat profile
 ============
 
             routine name                   CPU           calls
 ---------------------------------------------------------------
 eccp                                  123.939206     1468555
 raccmu_                               109.251903      249997
 w1_gemv                                65.414273     2748992
 i2                                     65.391072      211453
 eccp_nl                                63.142038     1135243
 redis_pw                               42.541815      322656
 phaser                                 38.627455        9600
 eddrmm                                 37.465463         116
 m_sumb_d                               30.597034      143815
 cnorma                                 30.479679     1135243
 eddiag                                 28.723695         116
 m_alltoall_d                           23.684485     4044768
 overl1                                 22.842549     1374496
 fft3d                                  22.303924     3187336
 fftwav                                 20.990333     1974915
 eddav                                  19.799375           8
 lapack                                 17.073022       38544
 rpromu_acc                             16.647330      275853
 hamilt_local                           15.547475      311808
 w1_dscal                               14.520912     2358631
 w1_copy                                14.379755     2701839
 soft_charge                            13.421990         120
 init_acc                               12.366530           1
 setup_precond                          11.788367      333312
 apply_precond                          10.945245     2392107
 w1_gaxpy                               10.403658     2024760
 total_time                              9.378244           1
 w1_daxpy                                9.088339     1646960
 w1_dot                                  8.907422      311763
 racc0mu_acc                             8.787220      249997
 newband                                 8.749438      257933
 hamiltmu                                8.448833      249997
 pw_charge                               8.290579      255371
 rpro_isp                                7.246260        1664
 redis_proj                              6.553381      311680
 depsum                                  5.248243         120
 kinhamil                                5.181284     1212421
 vhamil                                  5.062676     1212421
 fftext_mpi                              4.834990     1212421
 zhegv                                   4.187025      511717
 overl_mu                                3.844357      249997
 orth1                                   3.549504      206256
 fftwav_mpi                              2.743157     1974915
 choleski                                2.661958        7680
 set_dd_paw                              2.584368         128
 acc_init_cublas                         2.458797           1
 i3                                      2.108052      211453
 setdij_                                 2.105759         229
 m_bcast_z                               1.623240       49296
 orthch                                  1.442796         120
 overl                                   1.260171      147776
 augmentation_charge                     1.224632         120
 rspher_all                              0.944817          53
 acc_init_cusolver                       0.794643           1
 sphpro_fast                             0.675338           5
 fft3d_mpi                               0.662899     1216233
 m_bcast_d                               0.640615       77353
 ggemm                                   0.598259       49296
 potlok                                  0.562608         124
 elmin                                   0.532481           4
 lincom                                  0.447426       15616
 proall                                  0.356764           4
 m_alltoallv_z                           0.334938        4300
 dfftw_execute                           0.320502        1464
 densta                                  0.304489         125
 map_scatter                             0.258349        4300
 i1                                      0.245524      211453
 w1_projall                              0.211675      239245
 wavpre_noio                             0.208853           3
 map_gather                              0.206702        4300
 brmix                                   0.164637         120
 broyd                                   0.154834         120
 force_and_stress                        0.152694           4
 fftbas_plan_mpi                         0.151051        3812
 setg0                                   0.148215         128
 acc_cufft_makeplan                      0.122551          19
 truncate_high_frequency_w1              0.094521     1233925
 brget                                   0.065741       10751
 stufak                                  0.059558           4
 strnlr                                  0.050325           4
 set_charge                              0.039477         120
 map_forward                             0.025625        3584
 map_backward                            0.025385        4040
 fornlr                                  0.017896           4
 brsav                                   0.015826        2560
 forhar                                  0.012652           8
 fft_gq                                  0.011548         120
 strkin                                  0.011232           4
 pothar                                  0.010427         128
 strelo                                  0.009149           4
 strehar                                 0.006865           4
 forloc                                  0.006365           4
 inisym                                  0.004266           1
 brpre                                   0.004029         240
 rsp                                     0.003243           4
 fftbrc_mpi                              0.001898        3812
 shift_bands_between_low_high            0.001040        7424
 chggra                                  0.000931           4
 vectorpot                               0.000518         121
 set_dd_magatom                          0.000515         128
 fewald                                  0.000366           4
 fordep                                  0.000330           4
 brgrid                                  0.000236           1
 rcp                                     0.000150           4
 crpa_reader                             0.000027           1
 posmap                                  0.000016           2
 potlok_metagga                          0.000015         124
 acc_cufft_makeplans                     0.000010           3
 rotate_active_occupied_orbital          0.000001           4
 redis_pw_over_bands                     0.000001           4
 ---------------------------------------------------------------
  summed up times     1019.540355920792     
 
 Accumulative profile
 ====================
 
             routine name                   CPU           calls
 ---------------------------------------------------------------
 total_time                           1019.540356           1
 elmin                                 959.930398           4
 eddrmm                                686.658927         116
 i3                                    211.635235      211453
 i2                                    210.094290      211453
 hamiltmu                              147.934511      249997
 eccp                                  123.939206     1468555
 raccmu_                               121.883480      249997
 eddav                                 103.331754           8
 cnorma                                 93.621717     1135243
 eddiag                                 91.290019         116
 w1_gemv                                88.256822     2748992
 eccp_nl                                63.142038     1135243
 newband                                60.083122      257933
 redis_pw                               53.471354      322656
 phaser                                 38.627455        9600
 fftwav_mpi                             38.145443     1974915
 orthch                                 37.538808         120
 set_charge                             37.451395         120
 fftwav                                 35.402286     1974915
 m_sumb_d                               30.597034      143815
 soft_charge                            30.315883         120
 force_and_stress                       29.151411           4
 m_alltoall_d                           23.684485     4044768
 overl1                                 22.842549     1374496
 fft3d                                  22.303924     3187336
 hamilt_local                           21.273845      311808
 strnlr                                 19.931736           4
 rpro_isp                               19.923523        1664
 redis_proj                             19.308327      311680
 kinhamil                               18.265892     1212421
 lapack                                 17.073022       38544
 rpromu_acc                             16.647330      275853
 w1_dscal                               14.520912     2358631
 w1_copy                                14.379755     2701839
 fftext_mpi                             13.084608     1212421
 init_acc                               12.366530           1
 setup_precond                          11.788367      333312
 apply_precond                          10.945245     2392107
 w1_gaxpy                               10.403658     2024760
 fft3d_mpi                               9.879321     1216233
 w1_daxpy                                9.088339     1646960
 w1_dot                                  8.907422      311763
 racc0mu_acc                             8.787220      249997
 w1_projall                              8.488328      239245
 pw_charge                               8.290579      255371
 fornlr                                  6.653991           4
 depsum                                  5.283353         120
 vhamil                                  5.062676     1212421
 zhegv                                   4.187025      511717
 i1                                      3.962702      211453
 overl_mu                                3.844357      249997
 orth1                                   3.549504      206256
 set_dd_paw                              2.990345         128
 choleski                                2.661958        7680
 acc_init_cublas                         2.458797           1
 setdij_                                 2.183271         229
 augmentation_charge                     1.812682         120
 m_bcast_z                               1.623240       49296
 proall                                  1.514181           4
 fftbrc_mpi                              1.324450        3812
 fftbas_plan_mpi                         1.322552        3812
 potlok                                  1.282397         124
 overl                                   1.260171      147776
 rspher_all                              0.944817          53
 acc_init_cusolver                       0.794643           1
 sphpro_fast                             0.699707           5
 m_bcast_d                               0.640615       77353
 ggemm                                   0.598259       49296
 brmix                                   0.598115         120
 map_backward                            0.510585        4040
 lincom                                  0.447426       15616
 map_forward                             0.340415        3584
 densta                                  0.339355         125
 m_alltoallv_z                           0.334938        4300
 dfftw_execute                           0.320502        1464
 fft_gq                                  0.310660         120
 broyd                                   0.275393         120
 map_scatter                             0.258349        4300
 wavpre_noio                             0.252916           3
 fordep                                  0.228740           4
 map_gather                              0.206702        4300
 setg0                                   0.148215         128
 acc_cufft_makeplans                     0.122562           3
 acc_cufft_makeplan                      0.122551          19
 truncate_high_frequency_w1              0.094521     1233925
 brget                                   0.065741       10751
 stufak                                  0.059558           4
 brsav                                   0.015826        2560
 forhar                                  0.012904           8
 pothar                                  0.011522         128
 strkin                                  0.011270           4
 strelo                                  0.009630           4
 strehar                                 0.006978           4
 forloc                                  0.006879           4
 inisym                                  0.004282           1
 fewald                                  0.004082           4
 brpre                                   0.004029         240
 chggra                                  0.003273           4
 rsp                                     0.003243           4
 shift_bands_between_low_high            0.001040        7424
 vectorpot                               0.000518         121
 set_dd_magatom                          0.000515         128
 brgrid                                  0.000236           1
 rcp                                     0.000150           4
 crpa_reader                             0.000027           1
 posmap                                  0.000016           2
 potlok_metagga                          0.000015         124
 rotate_active_occupied_orbital          0.000001           4
 redis_pw_over_bands                     0.000001           4
 ---------------------------------------------------------------
 
Profiling took   4.317761  3.090519  0.003247  0.003164 seconds
Profiling took   3.603169 seconds
