 vasp.6.3.2 27Jun22 (build Jul  3 2023 11:46:21) complex                         
 executed on    LinuxNV_CrayMPICH date 2024.04.21  19:57:55
 running on    4 total cores
 distrk:  each k-point on    4 cores,    1 groups
 distr:  one band on NCORE=   1 cores,    4 groups


--------------------------------------------------------------------------------------------------------


 INCAR:
   ALGO = Normal
   AMIX_MAG = 0.8
   BMIX = 0.001
   BMIX_MAG = 0.001
   EDIFF = 0.0004
   EFIELD_PEAD = 0.0 0.0 0.0
   ENCUT = 520.0
   IBRION = 2
   ICHARG = 1
   ISIF = 3
   ISMEAR = 0
   ISPIN = 2
   ISTART = 1
   ISYM = 0
   LCALCEPS = False
   LCALCPOL = False
   LEFG = False
   LORBIT = 11
   LPEAD = False
   LREAL = Auto
   LWAVE = False
   MAGMOM = 1*7.0 7*0.6
   NELM = 1000
   NELMDL = 6
   NSW = 99
   PREC = accurate
   SIGMA = 0.2

 POTCAR:    PAW_PBE Eu 23Dec2003                  
 POTCAR:    PAW_PBE Bi 08Apr2002                  
 POTCAR:    PAW_PBE I 08Apr2002                   
 POTCAR:    PAW_PBE O 08Apr2002                   
 POTCAR:    PAW_PBE Eu 23Dec2003                  
   SHA256 =  ed303d27e7c5191953f9b15539336e6f36d9037c1d2e92e80c13d733697cb93d Eu/POTCAR             
   COPYR  = (c) Copyright 23Dec2003 Georg Kresse                                                    
   COPYR  = This file is part of the software VASP. Any use, copying, and all other rights are regul
   COPYR  = If you do not have a valid VASP license, you may not use, copy or distribute this file. 
   VRHFIN =Eu : [core=Kr4d]                                                                         
   LEXCH  = PE                                                                                      
   EATOM  =  2619.8085 eV,  192.5505 Ry                                                             
                                                                                                    
   TITEL  = PAW_PBE Eu 23Dec2003                                                                    
   LULTRA =        F    use ultrasoft PP ?                                                          
   IUNSCR =        1    unscreen: 0-lin 1-nonlin 2-no                                               
   RPACOR =    2.300    partial core radius                                                         
   POMASS =  151.965; ZVAL   =   17.000    mass and valenz                                          
   RCORE  =    2.800    outmost cutoff radius                                                       
   RWIGS  =    2.800; RWIGS  =    1.482    wigner-seitz radius (au A)                               
   ENMAX  =  249.668; ENMIN  =  187.251 eV                                                          
   RCLOC  =    2.308    cutoff for local pot                                                        
   LCOR   =        T    correct aug charges                                                         
   LPAW   =        T    paw PP                                                                      
   EAUG   =  549.628                                                                                
   DEXC   =    0.000                                                                                
   RMAX   =    2.870    core radius for proj-oper                                                   
   RAUG   =    1.300    factor for augmentation sphere                                              
   RDEP   =    2.887    radius for radial grids                                                     
   RDEPT  =    2.221    core radius for aug-charge                                                  
                                                                                                    
   Atomic configuration                                                                             
   14 entries                                                                                       
     n  l   j            E        occ.                                                              
     1  0  0.50    -48354.7667   2.0000                                                             
     2  0  0.50     -7939.6472   2.0000                                                             
     2  1  1.50     -7072.6637   6.0000                                                             
     3  0  0.50     -1747.1875   2.0000                                                             
     3  1  1.50     -1477.5221   6.0000                                                             
     3  2  2.50     -1117.4686  10.0000                                                             
     4  0  0.50      -346.8682   2.0000                                                             
     4  1  1.50      -258.1962   6.0000                                                             
     4  2  2.50      -134.7724  10.0000                                                             
     5  0  0.50       -44.6510   2.0000                                                             
     6  0  0.50        -3.6227   2.0000                                                             
     5  1  1.50       -23.7639   6.0000                                                             
     5  2  2.50        -1.3130   0.0000                                                             
     4  3  2.50        -2.7310   7.0000                                                             
   Description                                                                                      
     l       E           TYP  RCUT    TYP  RCUT                                                     
     0    -44.6510453     23  2.400                                                                 
     0     -3.6226685     23  2.400                                                                 
     1    -23.7638687     23  2.400                                                                 
     1     27.2116520     23  2.400                                                                 
     2     -1.3129622     23  2.500                                                                 
     2     13.6058260     23  2.500                                                                 
     3     -2.7309948     23  2.800                                                                 
     3     -3.4014565     23  2.800                                                                 
  local pseudopotential read in
  partial core-charges read in
  partial kinetic energy density read in
  atomic valenz-charges read in
  non local Contribution for L=            0  read in
    real space projection operators read in
  non local Contribution for L=            0  read in
    real space projection operators read in
  non local Contribution for L=            1  read in
    real space projection operators read in
  non local Contribution for L=            1  read in
    real space projection operators read in
  non local Contribution for L=            2  read in
    real space projection operators read in
  non local Contribution for L=            2  read in
    real space projection operators read in
  non local Contribution for L=            3  read in
    real space projection operators read in
  non local Contribution for L=            3  read in
    real space projection operators read in
    PAW grid and wavefunctions read in
 
   number of l-projection  operators is LMAX  =            8
   number of lm-projection operators is LMMAX =           32
 
 POTCAR:    PAW_PBE Bi 08Apr2002                  
   SHA256 =  d6b6753ed5db3f0e277fb15e6dbb6699c4bc829850a481068e9e7236faeca489 Bi/POTCAR             
   COPYR  = (c) Copyright 08Apr2002 Georg Kresse                                                    
   COPYR  = This file is part of the software VASP. Any use, copying, and all other rights are regul
   COPYR  = If you do not have a valid VASP license, you may not use, copy or distribute this file. 
   VRHFIN =Bi:                                                                                      
   LEXCH  = PE                                                                                      
   EATOM  =   150.8133 eV,   11.0845 Ry                                                             
                                                                                                    
   TITEL  = PAW_PBE Bi 08Apr2002                                                                    
   LULTRA =        F    use ultrasoft PP ?                                                          
   IUNSCR =        1    unscreen: 0-lin 1-nonlin 2-no                                               
   RPACOR =    2.200    partial core radius                                                         
   POMASS =  208.980; ZVAL   =    5.000    mass and valenz                                          
   RCORE  =    3.000    outmost cutoff radius                                                       
   RWIGS  =    3.090; RWIGS  =    1.635    wigner-seitz radius (au A)                               
   ENMAX  =  105.037; ENMIN  =   78.777 eV                                                          
   ICORE  =        3    local potential                                                             
   LCOR   =        T    correct aug charges                                                         
   LPAW   =        T    paw PP                                                                      
   EAUG   =  265.427                                                                                
   DEXC   =    0.000                                                                                
   RMAX   =    3.067    core radius for proj-oper                                                   
   RAUG   =    1.300    factor for augmentation sphere                                              
   RDEP   =    3.012    radius for radial grids                                                     
   RDEPT  =    2.604    core radius for aug-charge                                                  
                                                                                                    
   Atomic configuration                                                                             
   17 entries                                                                                       
     n  l   j            E        occ.                                                              
     1  0  0.50    -90639.6582   2.0000                                                             
     2  0  0.50    -16282.4667   2.0000                                                             
     2  1  1.50    -13922.8287   6.0000                                                             
     3  0  0.50     -3930.4763   2.0000                                                             
     3  1  1.50     -3256.7013   6.0000                                                             
     3  2  2.50     -2581.6169  10.0000                                                             
     4  0  0.50      -902.2614   2.0000                                                             
     4  1  1.50      -681.5915   6.0000                                                             
     4  2  2.50      -429.8249  10.0000                                                             
     4  3  3.50      -152.6004  14.0000                                                             
     5  0  0.50      -157.7156   2.0000                                                             
     5  1  1.50       -95.8054   6.0000                                                             
     5  2  2.50       -27.0806  10.0000                                                             
     6  0  0.50       -14.4732   2.0000                                                             
     6  1  1.50        -4.5702   3.0000                                                             
     6  2  2.50        -2.7212   0.0000                                                             
     5  3  2.50        -2.7212   0.0000                                                             
   Description                                                                                      
     l       E           TYP  RCUT    TYP  RCUT                                                     
     0    -14.4732299     23  3.000                                                                 
     0    -12.2452434     23  3.000                                                                 
     1     -4.5701666     23  3.000                                                                 
     1    -13.6058260     23  3.000                                                                 
     2     -2.7211652     23  3.000                                                                 
     3     -1.3605826      7  3.000                                                                 
  local pseudopotential read in
  partial core-charges read in
  partial kinetic energy density read in
  kinetic energy density of atom read in
  atomic valenz-charges read in
  non local Contribution for L=            0  read in
    real space projection operators read in
  non local Contribution for L=            0  read in
    real space projection operators read in
  non local Contribution for L=            1  read in
    real space projection operators read in
  non local Contribution for L=            1  read in
    real space projection operators read in
  non local Contribution for L=            2  read in
    real space projection operators read in
    PAW grid and wavefunctions read in
 
   number of l-projection  operators is LMAX  =            5
   number of lm-projection operators is LMMAX =           13
 
 POTCAR:    PAW_PBE I 08Apr2002                   
   SHA256 =  e40f3f59b681c1fc3e3091736183c4589116986673d2b852a5012aec72758799 I/POTCAR              
   COPYR  = (c) Copyright 08Apr2002 Georg Kresse                                                    
   COPYR  = This file is part of the software VASP. Any use, copying, and all other rights are regul
   COPYR  = If you do not have a valid VASP license, you may not use, copy or distribute this file. 
   VRHFIN =I : s2p5                                                                                 
   LEXCH  = PE                                                                                      
   EATOM  =   315.8678 eV,   23.2156 Ry                                                             
                                                                                                    
   TITEL  = PAW_PBE I 08Apr2002                                                                     
   LULTRA =        F    use ultrasoft PP ?                                                          
   IUNSCR =        1    unscreen: 0-lin 1-nonlin 2-no                                               
   RPACOR =    2.200    partial core radius                                                         
   POMASS =  126.904; ZVAL   =    7.000    mass and valenz                                          
   RCORE  =    2.300    outmost cutoff radius                                                       
   RWIGS  =    2.810; RWIGS  =    1.487    wigner-seitz radius (au A)                               
   ENMAX  =  175.647; ENMIN  =  131.735 eV                                                          
   ICORE  =        3    local potential                                                             
   LCOR   =        T    correct aug charges                                                         
   LPAW   =        T    paw PP                                                                      
   EAUG   =  370.139                                                                                
   DEXC   =    0.000                                                                                
   RMAX   =    2.359    core radius for proj-oper                                                   
   RAUG   =    1.300    factor for augmentation sphere                                              
   RDEP   =    2.392    radius for radial grids                                                     
   RDEPT  =    2.170    core radius for aug-charge                                                  
                                                                                                    
   Atomic configuration                                                                             
   13 entries                                                                                       
     n  l   j            E        occ.                                                              
     1  0  0.50    -32976.3739   2.0000                                                             
     2  0  0.50     -5094.5933   2.0000                                                             
     2  1  1.50     -4572.0131   6.0000                                                             
     3  0  0.50     -1028.2813   2.0000                                                             
     3  1  1.50      -859.0250   6.0000                                                             
     3  2  2.50      -605.7620  10.0000                                                             
     4  0  0.50      -180.5540   2.0000                                                             
     4  1  1.50      -127.5306   6.0000                                                             
     4  2  2.50       -50.2720  10.0000                                                             
     5  0  0.50       -17.4058   2.0000                                                             
     5  1  0.50        -7.0851   5.0000                                                             
     5  2  1.50        -7.0750   0.0000                                                             
     4  3  2.50        -7.0750   0.0000                                                             
   Description                                                                                      
     l       E           TYP  RCUT    TYP  RCUT                                                     
     0    -17.4058016     23  2.300                                                                 
     0    -18.7663842     23  2.300                                                                 
     1     -7.0850686     23  2.300                                                                 
     1     -4.2150896     23  2.300                                                                 
     2     -7.0750295     23  2.300                                                                 
     3     -1.3605826     23  2.300                                                                 
  local pseudopotential read in
  partial core-charges read in
  partial kinetic energy density read in
  atomic valenz-charges read in
  non local Contribution for L=            0  read in
    real space projection operators read in
  non local Contribution for L=            0  read in
    real space projection operators read in
  non local Contribution for L=            1  read in
    real space projection operators read in
  non local Contribution for L=            1  read in
    real space projection operators read in
  non local Contribution for L=            2  read in
    real space projection operators read in
    PAW grid and wavefunctions read in
 
   number of l-projection  operators is LMAX  =            5
   number of lm-projection operators is LMMAX =           13
 
 POTCAR:    PAW_PBE O 08Apr2002                   
   SHA256 =  818f92134a0a090dccd8ba1447fa70422a3b330e708bb4f08108d8ae51209ddf O/POTCAR              
   COPYR  = (c) Copyright 08Apr2002 Georg Kresse                                                    
   COPYR  = This file is part of the software VASP. Any use, copying, and all other rights are regul
   COPYR  = If you do not have a valid VASP license, you may not use, copy or distribute this file. 
   VRHFIN =O: s2p4                                                                                  
   LEXCH  = PE                                                                                      
   EATOM  =   432.3788 eV,   31.7789 Ry                                                             
                                                                                                    
   TITEL  = PAW_PBE O 08Apr2002                                                                     
   LULTRA =        F    use ultrasoft PP ?                                                          
   IUNSCR =        1    unscreen: 0-lin 1-nonlin 2-no                                               
   RPACOR =    1.200    partial core radius                                                         
   POMASS =   16.000; ZVAL   =    6.000    mass and valenz                                          
   RCORE  =    1.520    outmost cutoff radius                                                       
   RWIGS  =    1.550; RWIGS  =    0.820    wigner-seitz radius (au A)                               
   ENMAX  =  400.000; ENMIN  =  300.000 eV                                                          
   ICORE  =        2    local potential                                                             
   LCOR   =        T    correct aug charges                                                         
   LPAW   =        T    paw PP                                                                      
   EAUG   =  605.392                                                                                
   DEXC   =    0.000                                                                                
   RMAX   =    1.553    core radius for proj-oper                                                   
   RAUG   =    1.300    factor for augmentation sphere                                              
   RDEP   =    1.550    radius for radial grids                                                     
   RDEPT  =    1.329    core radius for aug-charge                                                  
                                                                                                    
   Atomic configuration                                                                             
    4 entries                                                                                       
     n  l   j            E        occ.                                                              
     1  0  0.50      -514.6923   2.0000                                                             
     2  0  0.50       -23.9615   2.0000                                                             
     2  1  0.50        -9.0305   4.0000                                                             
     3  2  1.50        -9.5241   0.0000                                                             
   Description                                                                                      
     l       E           TYP  RCUT    TYP  RCUT                                                     
     0    -23.9615318     23  1.200                                                                 
     0     -9.5240782     23  1.200                                                                 
     1     -9.0304911     23  1.520                                                                 
     1      8.1634956     23  1.520                                                                 
     2     -9.5240782      7  1.500                                                                 
  local pseudopotential read in
  partial core-charges read in
  partial kinetic energy density read in
  kinetic energy density of atom read in
  atomic valenz-charges read in
  non local Contribution for L=            0  read in
    real space projection operators read in
  non local Contribution for L=            0  read in
    real space projection operators read in
  non local Contribution for L=            1  read in
    real space projection operators read in
  non local Contribution for L=            1  read in
    real space projection operators read in
    PAW grid and wavefunctions read in
 
   number of l-projection  operators is LMAX  =            4
   number of lm-projection operators is LMMAX =            8
 
 -----------------------------------------------------------------------------
|                                                                             |
|               ----> ADVICE to this user running VASP <----                  |
|                                                                             |
|     You have a (more or less) 'small supercell' and for smaller cells       |
|     it is recommended to use the reciprocal-space projection scheme!        |
|     The real-space optimization is not efficient for small cells and it     |
|     is also less accurate ...                                               |
|     Therefore, set LREAL=.FALSE. in the INCAR file.                         |
|                                                                             |
 -----------------------------------------------------------------------------

 Optimization of the real space projectors (new method)

 maximal supplied QI-value         = 13.42
 optimisation between [QCUT,QGAM] = [ 11.67, 23.35] = [ 38.16,152.62] Ry 
 Optimized for a Real-space Cutoff    1.63 Angstroem

   l    n(q)    QCUT    max X(q) W(low)/X(q) W(high)/X(q)  e(spline) 
   0     11    11.673    10.400    0.14E-04    0.18E-05    0.24E-07
   0     11    11.673    10.768    0.21E-04    0.32E-05    0.49E-07
   1     11    11.673     4.094    0.40E-05    0.13E-04    0.93E-07
   1     11    11.673     4.009    0.11E-04    0.46E-04    0.33E-06
   2     10    11.673    29.030    0.79E-04    0.60E-04    0.70E-06
   2     10    11.673    19.941    0.80E-04    0.60E-04    0.71E-06
   3     10    11.673    88.889    0.23E-03    0.29E-03    0.30E-06
   3     10    11.673    76.102    0.23E-03    0.30E-03    0.30E-06
 Optimization of the real space projectors (new method)

 maximal supplied QI-value         = 12.47
 optimisation between [QCUT,QGAM] = [ 11.60, 23.32] = [ 37.68,152.32] Ry 
 Optimized for a Real-space Cutoff    1.63 Angstroem

   l    n(q)    QCUT    max X(q) W(low)/X(q) W(high)/X(q)  e(spline) 
   0     11    11.599    93.365    0.41E-04    0.18E-04    0.34E-06
   0     11    11.599    75.373    0.44E-04    0.20E-04    0.37E-06
   1     11    11.599    32.978    0.10E-03    0.17E-03    0.40E-06
   1     11    11.599    35.433    0.11E-03    0.18E-03    0.44E-06
   2     10    11.599     8.108    0.42E-04    0.24E-04    0.15E-06
 Optimization of the real space projectors (new method)

 maximal supplied QI-value         = 16.25
 optimisation between [QCUT,QGAM] = [ 11.54, 23.24] = [ 37.28,151.24] Ry 
 Optimized for a Real-space Cutoff    1.40 Angstroem

   l    n(q)    QCUT    max X(q) W(low)/X(q) W(high)/X(q)  e(spline) 
   0     10    11.539   194.483    0.48E-04    0.89E-04    0.13E-06
   0     10    11.539   190.334    0.47E-04    0.86E-04    0.12E-06
   1      9    11.539   116.687    0.15E-03    0.73E-04    0.13E-06
   1      9    11.539    88.696    0.15E-03    0.72E-04    0.13E-06
   2      9    11.539     4.877    0.99E-05    0.58E-04    0.56E-07
 Optimization of the real space projectors (new method)

 maximal supplied QI-value         = 24.76
 optimisation between [QCUT,QGAM] = [ 11.64, 23.27] = [ 37.91,151.63] Ry 
 Optimized for a Real-space Cutoff    1.14 Angstroem

   l    n(q)    QCUT    max X(q) W(low)/X(q) W(high)/X(q)  e(spline) 
   0      8    11.635    20.381    0.10E-03    0.33E-03    0.24E-06
   0      8    11.635    15.268    0.11E-03    0.35E-03    0.26E-06
   1      7    11.635     5.964    0.24E-03    0.31E-03    0.30E-06
   1      7    11.635     5.382    0.22E-03    0.25E-03    0.26E-06
  PAW_PBE Eu 23Dec2003                  :
 energy of atom  1       EATOM=-2619.8085
 kinetic energy error for atom=    0.0015 (will be added to EATOM!!)
  PAW_PBE Bi 08Apr2002                  :
 energy of atom  2       EATOM= -150.8133
 kinetic energy error for atom=    0.0001 (will be added to EATOM!!)
  PAW_PBE I 08Apr2002                   :
 energy of atom  3       EATOM= -315.8678
 kinetic energy error for atom=    0.0009 (will be added to EATOM!!)
  PAW_PBE O 08Apr2002                   :
 energy of atom  4       EATOM= -432.3788
 kinetic energy error for atom=    0.0208 (will be added to EATOM!!)
 
 
 POSCAR: Eu1 Bi2 I1 O4
  positions in direct lattice
  No initial velocities read in
 exchange correlation table for  LEXCH =        8
   RHO(1)=    0.500       N(1)  =     2000
   RHO(2)=  100.500       N(2)  =     4000

 VTST: version 4.2, (08/11/21)

 CHAIN: initializing optimizer
 
 OPT: Using VASP Conjugate-Gradient optimizer
 CHAIN: Read ICHAIN             0
 
 POSCAR: Eu1 Bi2 I1 O4
  positions in direct lattice
  No initial velocities read in
 


--------------------------------------------------------------------------------------------------------


 ion  position               nearest neighbor table
   1  0.000  1.000  0.000-   7 2.45   5 2.46   8 2.46   6 2.46   7 2.47   8 2.47   5 2.47   6 2.47

   2  0.498  0.502  0.258-   8 2.26   7 2.27   8 2.27   7 2.27   4 3.66   4 3.68   4 3.69   4 3.71

   3  0.502  0.499  0.742-   6 2.26   5 2.27   6 2.27   5 2.27   4 3.66   4 3.68   4 3.69   4 3.71

   4  1.000  0.000  0.500-   2 3.66   3 3.66   2 3.68   3 3.68   2 3.69   3 3.69   2 3.71   3 3.71

   5  0.501  0.001  0.852-   3 2.27   3 2.27   1 2.46   1 2.47
   6  0.999  0.499  0.853-   3 2.26   3 2.27   1 2.46   1 2.47
   7  0.499  0.999  0.148-   2 2.27   2 2.27   1 2.45   1 2.47
   8  0.001  0.501  0.147-   2 2.26   2 2.27   1 2.46   1 2.47
 

IMPORTANT INFORMATION: All symmetrisations will be switched off!
NOSYMM: (Re-)initialisation of all symmetry stuff for point group C_1.


----------------------------------------------------------------------------------------

                                     Primitive cell                                     

  volume of cell :     155.8492

  direct lattice vectors                    reciprocal lattice vectors
     3.976853310 -0.001994760  0.015980740     0.251458999  0.000131271 -0.000956899
    -0.002136700  3.991823830 -0.013878040     0.000122315  0.250515014  0.000831509
     0.037376820 -0.032604810  9.817602460    -0.000409143  0.000353911  0.101860595

  length of vectors
     3.976885919  3.991848526  9.817727749     0.251460854  0.250516423  0.101862032

  position of ions in fractional coordinates (direct lattice)
     0.000088750  0.999892990  0.000052730
     0.498164770  0.501533080  0.258023170
     0.501791560  0.498528530  0.741981710
     0.999968440  0.000037820  0.499985050
     0.500606290  0.001065470  0.852040200
     0.998690350  0.499455410  0.852768240
     0.499413490  0.998974440  0.147915520
     0.001276350  0.500512260  0.147233370

  ion indices of the primitive-cell ions
   primitive index   ion index
                 1           1
                 2           2
                 3           3
                 4           4
                 5           5
                 6           6
                 7           7
                 8           8

----------------------------------------------------------------------------------------

 
 
 KPOINTS: Kpoints from vasprun.xml                

Automatic generation of k-mesh.
 Grid dimensions read from file:
 generate k-points for:    7    7    3

 Generating k-lattice:

  Cartesian coordinates                     Fractional coordinates (reciprocal lattice)
     0.035922714  0.000018753 -0.000136700     0.142857143 -0.000000000  0.000000000
     0.000017474  0.035787859  0.000118787    -0.000000000  0.142857143  0.000000000
    -0.000136381  0.000117970  0.033953532    -0.000000000  0.000000000  0.333333333

  Length of vectors
     0.035922979  0.035788060  0.033954011

  Shift w.r.t. Gamma in fractional coordinates (k-lattice)
     0.000000000  0.000000000  0.000000000

 
 Subroutine IBZKPT returns following result:
 ===========================================
 
 Found     74 irreducible k-points:
 
 Following reciprocal coordinates:
            Coordinates               Weight
  0.000000  0.000000  0.000000      1.000000
  0.142857  0.000000  0.000000      2.000000
  0.285714  0.000000  0.000000      2.000000
  0.428571  0.000000  0.000000      2.000000
  0.000000  0.142857  0.000000      2.000000
  0.142857  0.142857  0.000000      2.000000
  0.285714  0.142857  0.000000      2.000000
  0.428571  0.142857  0.000000      2.000000
 -0.428571  0.142857  0.000000      2.000000
 -0.285714  0.142857  0.000000      2.000000
 -0.142857  0.142857  0.000000      2.000000
  0.000000  0.285714  0.000000      2.000000
  0.142857  0.285714  0.000000      2.000000
  0.285714  0.285714  0.000000      2.000000
  0.428571  0.285714  0.000000      2.000000
 -0.428571  0.285714  0.000000      2.000000
 -0.285714  0.285714  0.000000      2.000000
 -0.142857  0.285714  0.000000      2.000000
  0.000000  0.428571  0.000000      2.000000
  0.142857  0.428571  0.000000      2.000000
  0.285714  0.428571  0.000000      2.000000
  0.428571  0.428571  0.000000      2.000000
 -0.428571  0.428571  0.000000      2.000000
 -0.285714  0.428571  0.000000      2.000000
 -0.142857  0.428571  0.000000      2.000000
  0.000000  0.000000  0.333333      2.000000
  0.142857  0.000000  0.333333      2.000000
  0.285714  0.000000  0.333333      2.000000
  0.428571  0.000000  0.333333      2.000000
 -0.428571  0.000000  0.333333      2.000000
 -0.285714  0.000000  0.333333      2.000000
 -0.142857  0.000000  0.333333      2.000000
  0.000000  0.142857  0.333333      2.000000
  0.142857  0.142857  0.333333      2.000000
  0.285714  0.142857  0.333333      2.000000
  0.428571  0.142857  0.333333      2.000000
 -0.428571  0.142857  0.333333      2.000000
 -0.285714  0.142857  0.333333      2.000000
 -0.142857  0.142857  0.333333      2.000000
  0.000000  0.285714  0.333333      2.000000
  0.142857  0.285714  0.333333      2.000000
  0.285714  0.285714  0.333333      2.000000
  0.428571  0.285714  0.333333      2.000000
 -0.428571  0.285714  0.333333      2.000000
 -0.285714  0.285714  0.333333      2.000000
 -0.142857  0.285714  0.333333      2.000000
  0.000000  0.428571  0.333333      2.000000
  0.142857  0.428571  0.333333      2.000000
  0.285714  0.428571  0.333333      2.000000
  0.428571  0.428571  0.333333      2.000000
 -0.428571  0.428571  0.333333      2.000000
 -0.285714  0.428571  0.333333      2.000000
 -0.142857  0.428571  0.333333      2.000000
  0.000000 -0.428571  0.333333      2.000000
  0.142857 -0.428571  0.333333      2.000000
  0.285714 -0.428571  0.333333      2.000000
  0.428571 -0.428571  0.333333      2.000000
 -0.428571 -0.428571  0.333333      2.000000
 -0.285714 -0.428571  0.333333      2.000000
 -0.142857 -0.428571  0.333333      2.000000
  0.000000 -0.285714  0.333333      2.000000
  0.142857 -0.285714  0.333333      2.000000
  0.285714 -0.285714  0.333333      2.000000
  0.428571 -0.285714  0.333333      2.000000
 -0.428571 -0.285714  0.333333      2.000000
 -0.285714 -0.285714  0.333333      2.000000
 -0.142857 -0.285714  0.333333      2.000000
  0.000000 -0.142857  0.333333      2.000000
  0.142857 -0.142857  0.333333      2.000000
  0.285714 -0.142857  0.333333      2.000000
  0.428571 -0.142857  0.333333      2.000000
 -0.428571 -0.142857  0.333333      2.000000
 -0.285714 -0.142857  0.333333      2.000000
 -0.142857 -0.142857  0.333333      2.000000
 
 Following cartesian coordinates:
            Coordinates               Weight
  0.000000  0.000000  0.000000      1.000000
  0.035923  0.000019 -0.000137      2.000000
  0.071845  0.000038 -0.000273      2.000000
  0.107768  0.000056 -0.000410      2.000000
  0.000017  0.035788  0.000119      2.000000
  0.035940  0.035807 -0.000018      2.000000
  0.071863  0.035825 -0.000155      2.000000
  0.107786  0.035844 -0.000291      2.000000
 -0.107751  0.035732  0.000529      2.000000
 -0.071828  0.035750  0.000392      2.000000
 -0.035905  0.035769  0.000255      2.000000
  0.000035  0.071576  0.000238      2.000000
  0.035958  0.071594  0.000101      2.000000
  0.071880  0.071613 -0.000036      2.000000
  0.107803  0.071632 -0.000173      2.000000
 -0.107733  0.071519  0.000648      2.000000
 -0.071810  0.071538  0.000511      2.000000
 -0.035888  0.071557  0.000374      2.000000
  0.000052  0.107364  0.000356      2.000000
  0.035975  0.107382  0.000220      2.000000
  0.071898  0.107401  0.000083      2.000000
  0.107821  0.107420 -0.000054      2.000000
 -0.107716  0.107307  0.000766      2.000000
 -0.071793  0.107326  0.000630      2.000000
 -0.035870  0.107345  0.000493      2.000000
 -0.000136  0.000118  0.033954      2.000000
  0.035786  0.000137  0.033817      2.000000
  0.071709  0.000155  0.033680      2.000000
  0.107632  0.000174  0.033543      2.000000
 -0.107905  0.000062  0.034364      2.000000
 -0.071982  0.000080  0.034227      2.000000
 -0.036059  0.000099  0.034090      2.000000
 -0.000119  0.035906  0.034072      2.000000
  0.035804  0.035925  0.033936      2.000000
  0.071727  0.035943  0.033799      2.000000
  0.107649  0.035962  0.033662      2.000000
 -0.107887  0.035850  0.034482      2.000000
 -0.071964  0.035868  0.034346      2.000000
 -0.036042  0.035887  0.034209      2.000000
 -0.000101  0.071694  0.034191      2.000000
  0.035821  0.071712  0.034054      2.000000
  0.071744  0.071731  0.033918      2.000000
  0.107667  0.071750  0.033781      2.000000
 -0.107870  0.071637  0.034601      2.000000
 -0.071947  0.071656  0.034465      2.000000
 -0.036024  0.071675  0.034328      2.000000
 -0.000084  0.107482  0.034310      2.000000
  0.035839  0.107500  0.034173      2.000000
  0.071761  0.107519  0.034036      2.000000
  0.107684  0.107538  0.033900      2.000000
 -0.107852  0.107425  0.034720      2.000000
 -0.071929  0.107444  0.034583      2.000000
 -0.036007  0.107463  0.034447      2.000000
 -0.000189 -0.107246  0.033597      2.000000
  0.035734 -0.107227  0.033460      2.000000
  0.071657 -0.107208  0.033324      2.000000
  0.107579 -0.107189  0.033187      2.000000
 -0.107957 -0.107302  0.034007      2.000000
 -0.072034 -0.107283  0.033871      2.000000
 -0.036112 -0.107264  0.033734      2.000000
 -0.000171 -0.071458  0.033716      2.000000
  0.035751 -0.071439  0.033579      2.000000
  0.071674 -0.071420  0.033443      2.000000
  0.107597 -0.071401  0.033306      2.000000
 -0.107939 -0.071514  0.034126      2.000000
 -0.072017 -0.071495  0.033989      2.000000
 -0.036094 -0.071477  0.033853      2.000000
 -0.000154 -0.035670  0.033835      2.000000
  0.035769 -0.035651  0.033698      2.000000
  0.071692 -0.035632  0.033561      2.000000
  0.107614 -0.035614  0.033425      2.000000
 -0.107922 -0.035726  0.034245      2.000000
 -0.071999 -0.035707  0.034108      2.000000
 -0.036077 -0.035689  0.033971      2.000000
 


--------------------------------------------------------------------------------------------------------




 Dimension of arrays:
   k-points           NKPTS =     74   k-points in BZ     NKDIM =     74   number of bands    NBANDS=     40
   number of dos      NEDOS =    301   number of ions     NIONS =      8
   non local maximal  LDIM  =      8   non local SUM 2l+1 LMDIM =     32
   total plane-waves  NPLWV =  72000
   max r-space proj   IRMAX =   8387   max aug-charges    IRDMAX=  44202
   dimension x,y,z NGX =    30 NGY =   30 NGZ =   80
   dimension x,y,z NGXF=    60 NGYF=   60 NGZF=  160
   support grid    NGXF=    60 NGYF=   60 NGZF=  160
   ions per type =               1   2   1   4
   NGX,Y,Z   is equivalent  to a cutoff of  12.54, 12.49, 13.55 a.u.
   NGXF,Y,Z  is equivalent  to a cutoff of  25.08, 24.99, 27.09 a.u.

 SYSTEM =  unknown system                          
 POSCAR =  Eu1 Bi2 I1 O4                           

 Startparameter for this run:
   NWRITE =      2    write-flag & timer
   PREC   = accura    normal or accurate (medium, high low for compatibility)
   ISTART =      0    job   : 0-new  1-cont  2-samecut
   ICHARG =      1    charge: 1-file 2-atom 10-const
   ISPIN  =      2    spin polarized calculation?
   LNONCOLLINEAR =      F non collinear calculations
   LSORBIT =      F    spin-orbit coupling
   INIWAV =      1    electr: 0-lowe 1-rand  2-diag
   LASPH  =      F    aspherical Exc in radial PAW
 Electronic Relaxation 1
   ENCUT  =  520.0 eV  38.22 Ry    6.18 a.u.   7.39  7.42 18.25*2*pi/ulx,y,z
   ENINI  =  520.0     initial cutoff
   ENAUG  =  605.4 eV  augmentation charge cutoff
   NELM   =   1000;   NELMIN=  2; NELMDL=  6     # of ELM steps 
   EDIFF  = 0.4E-03   stopping-criterion for ELM
   LREAL  =      T    real-space projection
   NLSPLINE    = F    spline interpolate recip. space projectors
   LCOMPAT=      F    compatible to vasp.4.4
   GGA_COMPAT  = T    GGA compatible to vasp.4.4-vasp.4.6
   LMAXPAW     = -100 max onsite density
   LMAXMIX     =    2 max onsite mixed and CHGCAR
   VOSKOWN=      0    Vosko Wilk Nusair interpolation
   ROPT   =   -0.00025  -0.00025  -0.00025  -0.00025
 Ionic relaxation
   EDIFFG = 0.4E-02   stopping-criterion for IOM
   NSW    =     99    number of steps for IOM
   NBLOCK =      1;   KBLOCK =     99    inner block; outer block 
   IBRION =      2    ionic relax: 0-MD 1-quasi-New 2-CG
   NFREE  =      1    steps in history (QN), initial steepest desc. (CG)
   ISIF   =      3    stress and relaxation
   IWAVPR =     11    prediction:  0-non 1-charg 2-wave 3-comb
   ISYM   =      0    0-nonsym 1-usesym 2-fastsym
   LCORR  =      T    Harris-Foulkes like correction to forces

   POTIM  = 0.5000    time-step for ionic-motion
   TEIN   =    0.0    initial temperature
   TEBEG  =    0.0;   TEEND  =   0.0 temperature during run
   SMASS  =  -3.00    Nose mass-parameter (am)
   estimated Nose-frequenzy (Omega)   =  0.10E-29 period in steps = 0.13E+47 mass=  -0.361E-27a.u.
   SCALEE = 1.0000    scale energy and forces
   NPACO  =    256;   APACO  = 10.0  distance and # of slots for P.C.
   PSTRESS=    0.0 pullay stress

  Mass of Ions in am
   POMASS = 151.97208.98126.90 16.00
  Ionic Valenz
   ZVAL   =  17.00  5.00  7.00  6.00
  Atomic Wigner-Seitz radii
   RWIGS  =  -1.00 -1.00 -1.00 -1.00
  virtual crystal weights 
   VCA    =   1.00  1.00  1.00  1.00
   NELECT =      58.0000    total number of electrons
   NUPDOWN=      -1.0000    fix difference up-down

 DOS related values:
   EMIN   =  10.00;   EMAX   =-10.00  energy-range for DOS
   EFERMI =   0.00
   ISMEAR =     0;   SIGMA  =   0.20  broadening in eV -4-tet -1-fermi 0-gaus

 Electronic relaxation 2 (details)
   IALGO  =     38    algorithm
   LDIAG  =      T    sub-space diagonalisation (order eigenvalues)
   LSUBROT=      F    optimize rotation matrix (better conditioning)
   TURBO    =      0    0=normal 1=particle mesh
   IRESTART =      0    0=no restart 2=restart with 2 vectors
   NREBOOT  =      0    no. of reboots
   NMIN     =      0    reboot dimension
   EREF     =   0.00    reference energy to select bands
   IMIX   =      4    mixing-type and parameters
     AMIX     =   0.40;   BMIX     =  0.00
     AMIX_MAG =   0.80;   BMIX_MAG =  0.00
     AMIN     =   0.10
     WC   =   100.;   INIMIX=   1;  MIXPRE=   1;  MAXMIX= -45

 Intra band minimization:
   WEIMIN = 0.0010     energy-eigenvalue tresh-hold
   EBREAK =  0.25E-05  absolut break condition
   DEPER  =   0.30     relativ break condition  

   TIME   =   0.40     timestep for ELM

  volume/ion in A,a.u.               =      19.48       131.47
  Fermi-wavevector in a.u.,A,eV,Ry     =   1.177559  2.225264 18.866449  1.386645
  Thomas-Fermi vector in A             =   2.313903
 
 Write flags
   LWAVE        =      F    write WAVECAR
   LDOWNSAMPLE  =      F    k-point downsampling of WAVECAR
   LCHARG       =      T    write CHGCAR
   LVTOT        =      F    write LOCPOT, total local potential
   LVHAR        =      F    write LOCPOT, Hartree potential only
   LELF         =      F    write electronic localiz. function (ELF)
   LORBIT       =     11    0 simple, 1 ext, 2 COOP (PROOUT), +10 PAW based schemes


 Dipole corrections
   LMONO  =      F    monopole corrections only (constant potential shift)
   LDIPOL =      F    correct potential (dipole corrections)
   IDIPOL =      0    1-x, 2-y, 3-z, 4-all directions 
   EPSILON=  1.0000000 bulk dielectric constant

 Exchange correlation treatment:
   GGA     =    --    GGA type
   LEXCH   =     8    internal setting for exchange type
   LIBXC   =     F    Libxc                    
   VOSKOWN =     0    Vosko Wilk Nusair interpolation
   LHFCALC =     F    Hartree Fock is set to
   LHFONE  =     F    Hartree Fock one center treatment
   AEXX    =    0.0000 exact exchange contribution

 Linear response parameters
   LEPSILON=     F    determine dielectric tensor
   LRPA    =     F    only Hartree local field effects (RPA)
   LNABLA  =     F    use nabla operator in PAW spheres
   LVEL    =     F    velocity operator in full k-point grid
   CSHIFT  =0.1000    complex shift for real part using Kramers Kronig
   OMEGAMAX=  -1.0    maximum frequency
   DEG_THRESHOLD= 0.2000000E-02 threshold for treating states as degnerate
   RTIME   =   -0.100 relaxation time in fs
  (WPLASMAI=    0.000 imaginary part of plasma frequency in eV, 0.658/RTIME)
   DFIELD  = 0.0000000 0.0000000 0.0000000 field for delta impulse in time
 
  Optional k-point grid parameters
   LKPOINTS_OPT  =     F    use optional k-point grid
   KPOINTS_OPT_MODE=     1    mode for optional k-point grid
 
 Orbital magnetization related:
   ORBITALMAG=     F  switch on orbital magnetization
   LCHIMAG   =     F  perturbation theory with respect to B field
   DQ        =  0.001000  dq finite difference perturbation B field
   LLRAUG    =     F  two centre corrections for induced B field



--------------------------------------------------------------------------------------------------------


 conjugate gradient relaxation of ions
 charge density and potential will be updated during run
 spin polarized calculation
 Variant of blocked Davidson
 Davidson routine will perform the subspace rotation
 perform sub-space diagonalisation
    after iterative eigenvector-optimisation
 modified Broyden-mixing scheme, WC =      100.0
 initial mixing is a Kerker type mixing with AMIX =  0.4000 and BMIX =      0.0010
 Hartree-type preconditioning will be used
 using additional bands            11
 real space projection scheme for non local part
 use partial core corrections
 calculate Harris-corrections to forces 
   (improved forces if not selfconsistent)
 use gradient corrections 
 use of overlap-Matrix (Vanderbilt PP)
 Gauss-broadening in eV      SIGMA  =   0.20


--------------------------------------------------------------------------------------------------------


  energy-cutoff  :      520.00
  volume of cell :      155.85
      direct lattice vectors                 reciprocal lattice vectors
     3.976853310 -0.001994760  0.015980740     0.251458999  0.000131271 -0.000956899
    -0.002136700  3.991823830 -0.013878040     0.000122315  0.250515014  0.000831509
     0.037376820 -0.032604810  9.817602460    -0.000409143  0.000353911  0.101860595

  length of vectors
     3.976885919  3.991848526  9.817727749     0.251460854  0.250516423  0.101862032


 
 k-points in units of 2pi/SCALE and weight: Kpoints from vasprun.xml                
   0.00000000  0.00000000  0.00000000       0.007
   0.03592271  0.00001875 -0.00013670       0.014
   0.07184543  0.00003751 -0.00027340       0.014
   0.10776814  0.00005626 -0.00041010       0.014
   0.00001747  0.03578786  0.00011879       0.014
   0.03594019  0.03580661 -0.00001791       0.014
   0.07186290  0.03582537 -0.00015461       0.014
   0.10778562  0.03584412 -0.00029131       0.014
  -0.10775067  0.03573160  0.00052889       0.014
  -0.07182795  0.03575035  0.00039219       0.014
  -0.03590524  0.03576911  0.00025549       0.014
   0.00003495  0.07157572  0.00023757       0.014
   0.03595766  0.07159447  0.00010087       0.014
   0.07188038  0.07161322 -0.00003583       0.014
   0.10780309  0.07163198 -0.00017253       0.014
  -0.10773320  0.07151946  0.00064767       0.014
  -0.07181048  0.07153821  0.00051097       0.014
  -0.03588777  0.07155697  0.00037427       0.014
   0.00005242  0.10736358  0.00035636       0.014
   0.03597513  0.10738233  0.00021966       0.014
   0.07189785  0.10740108  0.00008296       0.014
   0.10782056  0.10741984 -0.00005374       0.014
  -0.10771572  0.10730732  0.00076646       0.014
  -0.07179301  0.10732607  0.00062976       0.014
  -0.03587029  0.10734482  0.00049306       0.014
  -0.00013638  0.00011797  0.03395353       0.014
   0.03578633  0.00013672  0.03381683       0.014
   0.07170905  0.00015548  0.03368013       0.014
   0.10763176  0.00017423  0.03354343       0.014
  -0.10790452  0.00006171  0.03436363       0.014
  -0.07198181  0.00008046  0.03422693       0.014
  -0.03605910  0.00009922  0.03409023       0.014
  -0.00011891  0.03590583  0.03407232       0.014
   0.03580381  0.03592458  0.03393562       0.014
   0.07172652  0.03594334  0.03379892       0.014
   0.10764924  0.03596209  0.03366222       0.014
  -0.10788705  0.03584957  0.03448242       0.014
  -0.07196434  0.03586832  0.03434572       0.014
  -0.03604162  0.03588708  0.03420902       0.014
  -0.00010143  0.07169369  0.03419111       0.014
   0.03582128  0.07171244  0.03405441       0.014
   0.07174399  0.07173119  0.03391771       0.014
   0.10766671  0.07174995  0.03378101       0.014
  -0.10786958  0.07163743  0.03460121       0.014
  -0.07194686  0.07165618  0.03446451       0.014
  -0.03602415  0.07167494  0.03432781       0.014
  -0.00008396  0.10748155  0.03430989       0.014
   0.03583875  0.10750030  0.03417319       0.014
   0.07176147  0.10751905  0.03403649       0.014
   0.10768418  0.10753781  0.03389979       0.014
  -0.10785210  0.10742529  0.03471999       0.014
  -0.07192939  0.10744404  0.03458329       0.014
  -0.03600667  0.10746279  0.03444659       0.014
  -0.00018880 -0.10724561  0.03359717       0.014
   0.03573391 -0.10722685  0.03346047       0.014
   0.07165663 -0.10720810  0.03332377       0.014
   0.10757934 -0.10718935  0.03318707       0.014
  -0.10795694 -0.10730187  0.03400727       0.014
  -0.07203423 -0.10728311  0.03387057       0.014
  -0.03611152 -0.10726436  0.03373387       0.014
  -0.00017133 -0.07145775  0.03371596       0.014
   0.03575139 -0.07143899  0.03357926       0.014
   0.07167410 -0.07142024  0.03344256       0.014
   0.10759681 -0.07140149  0.03330586       0.014
  -0.10793947 -0.07151401  0.03412606       0.014
  -0.07201676 -0.07149525  0.03398936       0.014
  -0.03609404 -0.07147650  0.03385266       0.014
  -0.00015385 -0.03566989  0.03383474       0.014
   0.03576886 -0.03565114  0.03369804       0.014
   0.07169157 -0.03563238  0.03356134       0.014
   0.10761429 -0.03561363  0.03342465       0.014
  -0.10792200 -0.03572615  0.03424484       0.014
  -0.07199928 -0.03570739  0.03410814       0.014
  -0.03607657 -0.03568864  0.03397144       0.014
 
 k-points in reciprocal lattice and weights: Kpoints from vasprun.xml                
   0.00000000  0.00000000  0.00000000       0.007
   0.14285714  0.00000000  0.00000000       0.014
   0.28571429  0.00000000  0.00000000       0.014
   0.42857143  0.00000000  0.00000000       0.014
   0.00000000  0.14285714  0.00000000       0.014
   0.14285714  0.14285714  0.00000000       0.014
   0.28571429  0.14285714  0.00000000       0.014
   0.42857143  0.14285714  0.00000000       0.014
  -0.42857143  0.14285714  0.00000000       0.014
  -0.28571429  0.14285714  0.00000000       0.014
  -0.14285714  0.14285714  0.00000000       0.014
   0.00000000  0.28571429  0.00000000       0.014
   0.14285714  0.28571429  0.00000000       0.014
   0.28571429  0.28571429  0.00000000       0.014
   0.42857143  0.28571429  0.00000000       0.014
  -0.42857143  0.28571429  0.00000000       0.014
  -0.28571429  0.28571429  0.00000000       0.014
  -0.14285714  0.28571429  0.00000000       0.014
   0.00000000  0.42857143  0.00000000       0.014
   0.14285714  0.42857143  0.00000000       0.014
   0.28571429  0.42857143  0.00000000       0.014
   0.42857143  0.42857143  0.00000000       0.014
  -0.42857143  0.42857143  0.00000000       0.014
  -0.28571429  0.42857143  0.00000000       0.014
  -0.14285714  0.42857143  0.00000000       0.014
   0.00000000  0.00000000  0.33333333       0.014
   0.14285714  0.00000000  0.33333333       0.014
   0.28571429  0.00000000  0.33333333       0.014
   0.42857143  0.00000000  0.33333333       0.014
  -0.42857143  0.00000000  0.33333333       0.014
  -0.28571429  0.00000000  0.33333333       0.014
  -0.14285714  0.00000000  0.33333333       0.014
   0.00000000  0.14285714  0.33333333       0.014
   0.14285714  0.14285714  0.33333333       0.014
   0.28571429  0.14285714  0.33333333       0.014
   0.42857143  0.14285714  0.33333333       0.014
  -0.42857143  0.14285714  0.33333333       0.014
  -0.28571429  0.14285714  0.33333333       0.014
  -0.14285714  0.14285714  0.33333333       0.014
   0.00000000  0.28571429  0.33333333       0.014
   0.14285714  0.28571429  0.33333333       0.014
   0.28571429  0.28571429  0.33333333       0.014
   0.42857143  0.28571429  0.33333333       0.014
  -0.42857143  0.28571429  0.33333333       0.014
  -0.28571429  0.28571429  0.33333333       0.014
  -0.14285714  0.28571429  0.33333333       0.014
   0.00000000  0.42857143  0.33333333       0.014
   0.14285714  0.42857143  0.33333333       0.014
   0.28571429  0.42857143  0.33333333       0.014
   0.42857143  0.42857143  0.33333333       0.014
  -0.42857143  0.42857143  0.33333333       0.014
  -0.28571429  0.42857143  0.33333333       0.014
  -0.14285714  0.42857143  0.33333333       0.014
   0.00000000 -0.42857143  0.33333333       0.014
   0.14285714 -0.42857143  0.33333333       0.014
   0.28571429 -0.42857143  0.33333333       0.014
   0.42857143 -0.42857143  0.33333333       0.014
  -0.42857143 -0.42857143  0.33333333       0.014
  -0.28571429 -0.42857143  0.33333333       0.014
  -0.14285714 -0.42857143  0.33333333       0.014
   0.00000000 -0.28571429  0.33333333       0.014
   0.14285714 -0.28571429  0.33333333       0.014
   0.28571429 -0.28571429  0.33333333       0.014
   0.42857143 -0.28571429  0.33333333       0.014
  -0.42857143 -0.28571429  0.33333333       0.014
  -0.28571429 -0.28571429  0.33333333       0.014
  -0.14285714 -0.28571429  0.33333333       0.014
   0.00000000 -0.14285714  0.33333333       0.014
   0.14285714 -0.14285714  0.33333333       0.014
   0.28571429 -0.14285714  0.33333333       0.014
   0.42857143 -0.14285714  0.33333333       0.014
  -0.42857143 -0.14285714  0.33333333       0.014
  -0.28571429 -0.14285714  0.33333333       0.014
  -0.14285714 -0.14285714  0.33333333       0.014
 
 position of ions in fractional coordinates (direct lattice) 
   0.00008875  0.99989299  0.00005273
   0.49816477  0.50153308  0.25802317
   0.50179156  0.49852853  0.74198171
   0.99996844  0.00003782  0.49998505
   0.50060629  0.00106547  0.85204020
   0.99869035  0.49945541  0.85276824
   0.49941349  0.99897444  0.14791552
   0.00127635  0.50051226  0.14723337
 
 position of ions in cartesian coordinates  (Angst):
  -0.00178155  3.99139477 -0.01335745
   1.98970067  1.99262518  2.53416965
   2.02221914  1.96484494  7.28558186
   3.99541557 -0.01814564  4.92463417
   2.02268206 -0.02452603  8.37297724
   4.00245160  1.96394151  8.38116792
   1.98948829  3.98191101  1.44629296
   0.00950953  1.99315370  1.43855296
 


--------------------------------------------------------------------------------------------------------


 k-point   1 :   0.0000 0.0000 0.0000  plane waves:    4245
 k-point   2 :   0.1429 0.0000 0.0000  plane waves:    4219
 k-point   3 :   0.2857 0.0000 0.0000  plane waves:    4213
 k-point   4 :   0.4286 0.0000 0.0000  plane waves:    4189
 k-point   5 :   0.0000 0.1429 0.0000  plane waves:    4227
 k-point   6 :   0.1429 0.1429 0.0000  plane waves:    4200
 k-point   7 :   0.2857 0.1429 0.0000  plane waves:    4199
 k-point   8 :   0.4286 0.1429 0.0000  plane waves:    4195
 k-point   9 :  -0.4286 0.1429 0.0000  plane waves:    4203
 k-point  10 :  -0.2857 0.1429 0.0000  plane waves:    4203
 k-point  11 :  -0.1429 0.1429 0.0000  plane waves:    4208
 k-point  12 :   0.0000 0.2857 0.0000  plane waves:    4206
 k-point  13 :   0.1429 0.2857 0.0000  plane waves:    4201
 k-point  14 :   0.2857 0.2857 0.0000  plane waves:    4186
 k-point  15 :   0.4286 0.2857 0.0000  plane waves:    4186
 k-point  16 :  -0.4286 0.2857 0.0000  plane waves:    4182
 k-point  17 :  -0.2857 0.2857 0.0000  plane waves:    4186
 k-point  18 :  -0.1429 0.2857 0.0000  plane waves:    4202
 k-point  19 :   0.0000 0.4286 0.0000  plane waves:    4181
 k-point  20 :   0.1429 0.4286 0.0000  plane waves:    4194
 k-point  21 :   0.2857 0.4286 0.0000  plane waves:    4189
 k-point  22 :   0.4286 0.4286 0.0000  plane waves:    4176
 k-point  23 :  -0.4286 0.4286 0.0000  plane waves:    4186
 k-point  24 :  -0.2857 0.4286 0.0000  plane waves:    4179
 k-point  25 :  -0.1429 0.4286 0.0000  plane waves:    4197
 k-point  26 :   0.0000 0.0000 0.3333  plane waves:    4230
 k-point  27 :   0.1429 0.0000 0.3333  plane waves:    4221
 k-point  28 :   0.2857 0.0000 0.3333  plane waves:    4203
 k-point  29 :   0.4286 0.0000 0.3333  plane waves:    4177
 k-point  30 :  -0.4286 0.0000 0.3333  plane waves:    4184
 k-point  31 :  -0.2857 0.0000 0.3333  plane waves:    4202
 k-point  32 :  -0.1429 0.0000 0.3333  plane waves:    4215
 k-point  33 :   0.0000 0.1429 0.3333  plane waves:    4216
 k-point  34 :   0.1429 0.1429 0.3333  plane waves:    4200
 k-point  35 :   0.2857 0.1429 0.3333  plane waves:    4199
 k-point  36 :   0.4286 0.1429 0.3333  plane waves:    4188
 k-point  37 :  -0.4286 0.1429 0.3333  plane waves:    4195
 k-point  38 :  -0.2857 0.1429 0.3333  plane waves:    4201
 k-point  39 :  -0.1429 0.1429 0.3333  plane waves:    4211
 k-point  40 :   0.0000 0.2857 0.3333  plane waves:    4198
 k-point  41 :   0.1429 0.2857 0.3333  plane waves:    4207
 k-point  42 :   0.2857 0.2857 0.3333  plane waves:    4193
 k-point  43 :   0.4286 0.2857 0.3333  plane waves:    4185
 k-point  44 :  -0.4286 0.2857 0.3333  plane waves:    4186
 k-point  45 :  -0.2857 0.2857 0.3333  plane waves:    4187
 k-point  46 :  -0.1429 0.2857 0.3333  plane waves:    4206
 k-point  47 :   0.0000 0.4286 0.3333  plane waves:    4179
 k-point  48 :   0.1429 0.4286 0.3333  plane waves:    4184
 k-point  49 :   0.2857 0.4286 0.3333  plane waves:    4191
 k-point  50 :   0.4286 0.4286 0.3333  plane waves:    4178
 k-point  51 :  -0.4286 0.4286 0.3333  plane waves:    4185
 k-point  52 :  -0.2857 0.4286 0.3333  plane waves:    4192
 k-point  53 :  -0.1429 0.4286 0.3333  plane waves:    4187
 k-point  54 :   0.0000-0.4286 0.3333  plane waves:    4173
 k-point  55 :   0.1429-0.4286 0.3333  plane waves:    4183
 k-point  56 :   0.2857-0.4286 0.3333  plane waves:    4197
 k-point  57 :   0.4286-0.4286 0.3333  plane waves:    4174
 k-point  58 :  -0.4286-0.4286 0.3333  plane waves:    4184
 k-point  59 :  -0.2857-0.4286 0.3333  plane waves:    4184
 k-point  60 :  -0.1429-0.4286 0.3333  plane waves:    4185
 k-point  61 :   0.0000-0.2857 0.3333  plane waves:    4200
 k-point  62 :   0.1429-0.2857 0.3333  plane waves:    4200
 k-point  63 :   0.2857-0.2857 0.3333  plane waves:    4197
 k-point  64 :   0.4286-0.2857 0.3333  plane waves:    4201
 k-point  65 :  -0.4286-0.2857 0.3333  plane waves:    4191
 k-point  66 :  -0.2857-0.2857 0.3333  plane waves:    4196
 k-point  67 :  -0.1429-0.2857 0.3333  plane waves:    4198
 k-point  68 :   0.0000-0.1429 0.3333  plane waves:    4225
 k-point  69 :   0.1429-0.1429 0.3333  plane waves:    4211
 k-point  70 :   0.2857-0.1429 0.3333  plane waves:    4200
 k-point  71 :   0.4286-0.1429 0.3333  plane waves:    4182
 k-point  72 :  -0.4286-0.1429 0.3333  plane waves:    4192
 k-point  73 :  -0.2857-0.1429 0.3333  plane waves:    4203
 k-point  74 :  -0.1429-0.1429 0.3333  plane waves:    4202

 maximum and minimum number of plane-waves per node :      4245     4173

 maximum number of plane-waves:      4245
 maximum index in each direction: 
   IXMAX=    7   IYMAX=    7   IZMAX=   18
   IXMIN=   -7   IYMIN=   -7   IZMIN=  -18


 serial   3D FFT for wavefunctions
 parallel 3D FFT for charge:
    minimum data exchange during FFTs selected (reduces bandwidth)


 total amount of memory used by VASP MPI-rank0   165414. kBytes
=======================================================================

   base      :      30000. kBytes
   nonlr-proj:       6633. kBytes
   fftplans  :       5184. kBytes
   grid      :      19756. kBytes
   one-center:        786. kBytes
   wavefun   :     103055. kBytes
 
     INWAV:  cpu time      0.0001: real time      0.0003
 Broyden mixing: mesh for mixing (old mesh)
   NGX = 15   NGY = 15   NGZ = 37
  (NGX  = 60   NGY  = 60   NGZ  =160)
  gives a total of   8325 points

 initial charge density was supplied:
 charge density of overlapping atoms calculated
 number of electron      58.0000000 magnetization      11.2000000
 keeping initial charge density in first step


--------------------------------------------------------------------------------------------------------


 Maximum index for non-local projection operator          8074
 Maximum index for augmentation-charges         10660 (set IRDMAX)


--------------------------------------------------------------------------------------------------------


 First call to EWALD:  gamma=   0.329
 Maximum number of real-space cells 4x 4x 2
 Maximum number of reciprocal cells 2x 2x 5

    FEWALD:  cpu time      0.0012: real time      0.0012


--------------------------------------- Iteration      1(   1)  ---------------------------------------


    POTLOK:  cpu time      0.1573: real time      0.1931
    SETDIJ:  cpu time      0.0138: real time      0.0138
     EDDAV:  cpu time      6.0384: real time      6.0475
       DOS:  cpu time      0.0020: real time      0.0020
    --------------------------------------------
      LOOP:  cpu time      6.2115: real time      6.2563

 eigenvalue-minimisations  : 15336
 total energy-change (2. order) : 0.5166411E+03  (-0.2449276E+04)
 number of electron      58.0000000 magnetization      11.2000000
 augmentation part       58.0000000 magnetization      11.2000000

 Free energy of the ion-electron system (eV)
  ---------------------------------------------------
  alpha Z        PSCENC =       162.05526414
  Ewald energy   TEWEN  =     -2279.71442554
  -Hartree energ DENC   =     -2683.71656299
  -exchange      EXHF   =         0.00000000
  -V(xc)+E(xc)   XCENC  =       -36.76752476
  PAW double counting   =      4322.74913156    -4213.62275601
  entropy T*S    EENTRO =        -0.04314285
  eigenvalues    EBANDS =       278.96874793
  atomic energy  EATOM  =      4966.73236132
  Solvation  Ediel_sol  =         0.00000000
  ---------------------------------------------------
  free energy    TOTEN  =       516.64109280 eV

  energy without entropy =      516.68423564  energy(sigma->0) =      516.66266422


--------------------------------------------------------------------------------------------------------




--------------------------------------- Iteration      1(   2)  ---------------------------------------


     EDDAV:  cpu time      6.4648: real time      6.4709
       DOS:  cpu time      0.0020: real time      0.0020
    --------------------------------------------
      LOOP:  cpu time      6.4668: real time      6.4729

 eigenvalue-minimisations  : 16784
 total energy-change (2. order) :-0.4911514E+03  (-0.4440484E+03)
 number of electron      58.0000000 magnetization      11.2000000
 augmentation part       58.0000000 magnetization      11.2000000

 Free energy of the ion-electron system (eV)
  ---------------------------------------------------
  alpha Z        PSCENC =       162.05526414
  Ewald energy   TEWEN  =     -2279.71442554
  -Hartree energ DENC   =     -2683.71656299
  -exchange      EXHF   =         0.00000000
  -V(xc)+E(xc)   XCENC  =       -36.76752476
  PAW double counting   =      4322.74913156    -4213.62275601
  entropy T*S    EENTRO =        -0.06153755
  eigenvalues    EBANDS =      -212.16420830
  atomic energy  EATOM  =      4966.73236132
  Solvation  Ediel_sol  =         0.00000000
  ---------------------------------------------------
  free energy    TOTEN  =        25.48974187 eV

  energy without entropy =       25.55127941  energy(sigma->0) =       25.52051064


--------------------------------------------------------------------------------------------------------




--------------------------------------- Iteration      1(   3)  ---------------------------------------


     EDDAV:  cpu time      6.1894: real time      6.1950
       DOS:  cpu time      0.0021: real time      0.0021
    --------------------------------------------
      LOOP:  cpu time      6.1915: real time      6.1971

 eigenvalue-minimisations  : 15832
 total energy-change (2. order) :-0.8366611E+02  (-0.8098822E+02)
 number of electron      58.0000000 magnetization      11.2000000
 augmentation part       58.0000000 magnetization      11.2000000

 Free energy of the ion-electron system (eV)
  ---------------------------------------------------
  alpha Z        PSCENC =       162.05526414
  Ewald energy   TEWEN  =     -2279.71442554
  -Hartree energ DENC   =     -2683.71656299
  -exchange      EXHF   =         0.00000000
  -V(xc)+E(xc)   XCENC  =       -36.76752476
  PAW double counting   =      4322.74913156    -4213.62275601
  entropy T*S    EENTRO =        -0.24200139
  eigenvalues    EBANDS =      -295.64985057
  atomic energy  EATOM  =      4966.73236132
  Solvation  Ediel_sol  =         0.00000000
  ---------------------------------------------------
  free energy    TOTEN  =       -58.17636424 eV

  energy without entropy =      -57.93436286  energy(sigma->0) =      -58.05536355


--------------------------------------------------------------------------------------------------------




--------------------------------------- Iteration      1(   4)  ---------------------------------------


     EDDAV:  cpu time      6.7847: real time      6.7896
       DOS:  cpu time      0.0022: real time      0.0022
    --------------------------------------------
      LOOP:  cpu time      6.7868: real time      6.7918

 eigenvalue-minimisations  : 17616
 total energy-change (2. order) :-0.4534119E+01  (-0.4486263E+01)
 number of electron      58.0000000 magnetization      11.2000000
 augmentation part       58.0000000 magnetization      11.2000000

 Free energy of the ion-electron system (eV)
  ---------------------------------------------------
  alpha Z        PSCENC =       162.05526414
  Ewald energy   TEWEN  =     -2279.71442554
  -Hartree energ DENC   =     -2683.71656299
  -exchange      EXHF   =         0.00000000
  -V(xc)+E(xc)   XCENC  =       -36.76752476
  PAW double counting   =      4322.74913156    -4213.62275601
  entropy T*S    EENTRO =        -0.27284681
  eigenvalues    EBANDS =      -300.15312452
  atomic energy  EATOM  =      4966.73236132
  Solvation  Ediel_sol  =         0.00000000
  ---------------------------------------------------
  free energy    TOTEN  =       -62.71048361 eV

  energy without entropy =      -62.43763680  energy(sigma->0) =      -62.57406020


--------------------------------------------------------------------------------------------------------




--------------------------------------- Iteration      1(   5)  ---------------------------------------


     EDDAV:  cpu time      7.1575: real time      7.1618
       DOS:  cpu time      0.0021: real time      0.0021
    --------------------------------------------
      LOOP:  cpu time      7.1596: real time      7.1639

 eigenvalue-minimisations  : 18680
 total energy-change (2. order) :-0.2219810E+00  (-0.2213579E+00)
 number of electron      58.0000000 magnetization      11.2000000
 augmentation part       58.0000000 magnetization      11.2000000

 Free energy of the ion-electron system (eV)
  ---------------------------------------------------
  alpha Z        PSCENC =       162.05526414
  Ewald energy   TEWEN  =     -2279.71442554
  -Hartree energ DENC   =     -2683.71656299
  -exchange      EXHF   =         0.00000000
  -V(xc)+E(xc)   XCENC  =       -36.76752476
  PAW double counting   =      4322.74913156    -4213.62275601
  entropy T*S    EENTRO =        -0.27461308
  eigenvalues    EBANDS =      -300.37333922
  atomic energy  EATOM  =      4966.73236132
  Solvation  Ediel_sol  =         0.00000000
  ---------------------------------------------------
  free energy    TOTEN  =       -62.93246458 eV

  energy without entropy =      -62.65785150  energy(sigma->0) =      -62.79515804


--------------------------------------------------------------------------------------------------------




--------------------------------------- Iteration      1(   6)  ---------------------------------------


     EDDAV:  cpu time      6.7851: real time      6.7887
       DOS:  cpu time      0.0022: real time      0.0022
    CHARGE:  cpu time      0.1875: real time      0.1876
    MIXING:  cpu time      0.0013: real time      0.0013
    --------------------------------------------
      LOOP:  cpu time      6.9761: real time      6.9796

 eigenvalue-minimisations  : 17632
 total energy-change (2. order) :-0.5582096E-02  (-0.5579569E-02)
 number of electron      57.9999984 magnetization       6.9144948
 augmentation part        2.5881794 magnetization       5.7966869

 Broyden mixing:
  rms(total) = 0.25748E+01    rms(broyden)= 0.25746E+01
  rms(prec ) = 0.34248E+01
  weight for this iteration     100.00

 Free energy of the ion-electron system (eV)
  ---------------------------------------------------
  alpha Z        PSCENC =       162.05526414
  Ewald energy   TEWEN  =     -2279.71442554
  -Hartree energ DENC   =     -2683.71656299
  -exchange      EXHF   =         0.00000000
  -V(xc)+E(xc)   XCENC  =       -36.76752476
  PAW double counting   =      4322.74913156    -4213.62275601
  entropy T*S    EENTRO =        -0.27470788
  eigenvalues    EBANDS =      -300.37882652
  atomic energy  EATOM  =      4966.73236132
  Solvation  Ediel_sol  =         0.00000000
  ---------------------------------------------------
  free energy    TOTEN  =       -62.93804668 eV

  energy without entropy =      -62.66333880  energy(sigma->0) =      -62.80069274


--------------------------------------------------------------------------------------------------------




--------------------------------------- Iteration      1(   7)  ---------------------------------------


    POTLOK:  cpu time      0.0070: real time      0.0076
    SETDIJ:  cpu time      0.0119: real time      0.0119
     EDDAV:  cpu time      6.4206: real time      6.4244
       DOS:  cpu time      0.0021: real time      0.0021
    CHARGE:  cpu time      0.1909: real time      0.1909
    MIXING:  cpu time      0.0042: real time      0.0122
    --------------------------------------------
      LOOP:  cpu time      6.6368: real time      6.6492

 eigenvalue-minimisations  : 16616
 total energy-change (2. order) :-0.3716703E+02  (-0.1938257E+02)
 number of electron      57.9999995 magnetization       5.9515143
 augmentation part        8.7153528 magnetization       5.1544690

 Broyden mixing:
  rms(total) = 0.81661E+01    rms(broyden)= 0.81657E+01
  rms(prec ) = 0.11063E+02
  weight for this iteration     100.00

 eigenvalues of (default mixing * dielectric matrix)
  average eigenvalue GAMMA=   0.1886
  0.1886

 Free energy of the ion-electron system (eV)
  ---------------------------------------------------
  alpha Z        PSCENC =       162.05526414
  Ewald energy   TEWEN  =     -2279.71442554
  -Hartree energ DENC   =     -2744.82629099
  -exchange      EXHF   =         0.00000000
  -V(xc)+E(xc)   XCENC  =       -33.09921682
  PAW double counting   =      4481.20323943    -4351.15275192
  entropy T*S    EENTRO =        -0.12069125
  eigenvalues    EBANDS =      -301.18256474
  atomic energy  EATOM  =      4966.73236132
  Solvation  Ediel_sol  =         0.00000000
  ---------------------------------------------------
  free energy    TOTEN  =      -100.10507637 eV

  energy without entropy =      -99.98438512  energy(sigma->0) =     -100.04473074


--------------------------------------------------------------------------------------------------------




--------------------------------------- Iteration      1(   8)  ---------------------------------------


    POTLOK:  cpu time      0.0072: real time      0.0079
    SETDIJ:  cpu time      0.0125: real time      0.0125
     EDDAV:  cpu time      6.2969: real time      6.3007
       DOS:  cpu time      0.0022: real time      0.0022
    CHARGE:  cpu time      0.1846: real time      0.1847
    MIXING:  cpu time      0.0014: real time      0.0014
    --------------------------------------------
      LOOP:  cpu time      6.5048: real time      6.5093

 eigenvalue-minimisations  : 16104
 total energy-change (2. order) : 0.2655233E+02  (-0.1051597E+02)
 number of electron      57.9999990 magnetization       5.1446976
 augmentation part       -3.8797350 magnetization       4.7669488

 Broyden mixing:
  rms(total) = 0.56229E+01    rms(broyden)= 0.56227E+01
  rms(prec ) = 0.85375E+01
  weight for this iteration     100.00

 eigenvalues of (default mixing * dielectric matrix)
  average eigenvalue GAMMA=   0.1162
  0.1920  0.0404

 Free energy of the ion-electron system (eV)
  ---------------------------------------------------
  alpha Z        PSCENC =       162.05526414
  Ewald energy   TEWEN  =     -2279.71442554
  -Hartree energ DENC   =     -2832.08456049
  -exchange      EXHF   =         0.00000000
  -V(xc)+E(xc)   XCENC  =       -32.89353222
  PAW double counting   =      4624.17045502    -4522.59369910
  entropy T*S    EENTRO =        -0.07165419
  eigenvalues    EBANDS =      -159.15295962
  atomic energy  EATOM  =      4966.73236132
  Solvation  Ediel_sol  =         0.00000000
  ---------------------------------------------------
  free energy    TOTEN  =       -73.55275069 eV

  energy without entropy =      -73.48109650  energy(sigma->0) =      -73.51692359


--------------------------------------------------------------------------------------------------------




--------------------------------------- Iteration      1(   9)  ---------------------------------------


    POTLOK:  cpu time      0.0068: real time      0.0079
    SETDIJ:  cpu time      0.0121: real time      0.0121
     EDDAV:  cpu time      6.9094: real time      6.9128
       DOS:  cpu time      0.0022: real time      0.0022
    CHARGE:  cpu time      0.1843: real time      0.1843
    MIXING:  cpu time      0.0014: real time      0.0014
    --------------------------------------------
      LOOP:  cpu time      7.1162: real time      7.1208

 eigenvalue-minimisations  : 18184
 total energy-change (2. order) : 0.2131356E+02  (-0.1945512E+01)
 number of electron      57.9999988 magnetization       5.0315061
 augmentation part        2.3405868 magnetization       4.4966160

 Broyden mixing:
  rms(total) = 0.17624E+01    rms(broyden)= 0.17624E+01
  rms(prec ) = 0.18412E+01
  weight for this iteration     100.00

 eigenvalues of (default mixing * dielectric matrix)
  average eigenvalue GAMMA=   0.3932
  0.8811  0.2137  0.0849

 Free energy of the ion-electron system (eV)
  ---------------------------------------------------
  alpha Z        PSCENC =       162.05526414
  Ewald energy   TEWEN  =     -2279.71442554
  -Hartree energ DENC   =     -2757.53945554
  -exchange      EXHF   =         0.00000000
  -V(xc)+E(xc)   XCENC  =       -34.81202892
  PAW double counting   =      4605.74541821    -4497.49691532
  entropy T*S    EENTRO =        -0.18387971
  eigenvalues    EBANDS =      -217.02552841
  atomic energy  EATOM  =      4966.73236132
  Solvation  Ediel_sol  =         0.00000000
  ---------------------------------------------------
  free energy    TOTEN  =       -52.23918978 eV

  energy without entropy =      -52.05531007  energy(sigma->0) =      -52.14724992


--------------------------------------------------------------------------------------------------------




--------------------------------------- Iteration      1(  10)  ---------------------------------------


    POTLOK:  cpu time      0.0068: real time      0.0080
    SETDIJ:  cpu time      0.0122: real time      0.0122
     EDDAV:  cpu time      6.5860: real time      6.5887
       DOS:  cpu time      0.0021: real time      0.0021
    CHARGE:  cpu time      0.1843: real time      0.1844
    MIXING:  cpu time      0.0014: real time      0.0014
    --------------------------------------------
      LOOP:  cpu time      6.7929: real time      6.7968

 eigenvalue-minimisations  : 17080
 total energy-change (2. order) :-0.7761614E+00  (-0.4337157E+00)
 number of electron      57.9999987 magnetization       4.8757981
 augmentation part        3.0768599 magnetization       4.3679666

 Broyden mixing:
  rms(total) = 0.16123E+01    rms(broyden)= 0.16123E+01
  rms(prec ) = 0.18012E+01
  weight for this iteration     100.00

 eigenvalues of (default mixing * dielectric matrix)
  average eigenvalue GAMMA=   0.6516
  1.5376  0.7271  0.2517  0.0901

 Free energy of the ion-electron system (eV)
  ---------------------------------------------------
  alpha Z        PSCENC =       162.05526414
  Ewald energy   TEWEN  =     -2279.71442554
  -Hartree energ DENC   =     -2734.10144068
  -exchange      EXHF   =         0.00000000
  -V(xc)+E(xc)   XCENC  =       -34.78698218
  PAW double counting   =      4664.59816361    -4554.48788131
  entropy T*S    EENTRO =        -0.12440667
  eigenvalues    EBANDS =      -243.18600388
  atomic energy  EATOM  =      4966.73236132
  Solvation  Ediel_sol  =         0.00000000
  ---------------------------------------------------
  free energy    TOTEN  =       -53.01535119 eV

  energy without entropy =      -52.89094452  energy(sigma->0) =      -52.95314785


--------------------------------------------------------------------------------------------------------




--------------------------------------- Iteration      1(  11)  ---------------------------------------


    POTLOK:  cpu time      0.0068: real time      0.0077
    SETDIJ:  cpu time      0.0124: real time      0.0124
     EDDAV:  cpu time      7.3830: real time      7.3864
       DOS:  cpu time      0.0022: real time      0.0022
    CHARGE:  cpu time      0.1842: real time      0.1842
    MIXING:  cpu time      0.0015: real time      0.0015
    --------------------------------------------
      LOOP:  cpu time      7.5900: real time      7.5944

 eigenvalue-minimisations  : 19592
 total energy-change (2. order) : 0.8782797E-01  (-0.2533149E+00)
 number of electron      57.9999988 magnetization       5.2195751
 augmentation part        2.9229613 magnetization       5.0564894

 Broyden mixing:
  rms(total) = 0.13418E+01    rms(broyden)= 0.13418E+01
  rms(prec ) = 0.14207E+01
  weight for this iteration     100.00

 eigenvalues of (default mixing * dielectric matrix)
  average eigenvalue GAMMA=   0.8280
  2.2833  1.0613  0.0900  0.2534  0.4518

 Free energy of the ion-electron system (eV)
  ---------------------------------------------------
  alpha Z        PSCENC =       162.05526414
  Ewald energy   TEWEN  =     -2279.71442554
[...]
  194        fordep                                0.178634                            6   3
  195          setdij_                               0.178540                         36   4
  196            m_sumb_d                              0.005188                       36   5
  197        setdij_                               0.581542                          120   3
  198          m_sumb_d                              0.017247                        120   4
  199        set_dd_magatom                        0.000023                            6   3
  200        set_dd_paw                            0.043433                            6   3
  201          m_sumb_d                              0.003985                         42   4
  202        strkin                                0.004654                            6   3
  203          m_sumb_d                              0.000038                          6   4
  204        strelo                                0.007755                            6   3
  205          m_sumb_d                              0.000473                         12   4
  206        strnlr                               17.731143                            6   3
  207          rspher_all                            0.333683                         54   4
  208          phaser                                5.705426                       3996   4
  209          rpro_isp                             11.584598                       3996   4
  210            fftwav_mpi                            2.472629                    79920   5
  211              fftwav                                2.379786                  79920   6
  212                fft3d                                 0.544842                79920   7
  213            rpromu_acc                            3.950965                    23976   5
  214          m_sumb_d                              0.000076                          6   4
  215        fft3d_mpi                             0.018736                          132   3
  216          fftbrc_mpi                            0.014678                        132   4
  217            fftbas_plan_mpi                       0.014603                      132   5
  218              map_forward                           0.005188                    120   6
  219                map_gather                            0.001189                   60   7
  220                m_alltoallv_z                         0.000744                   60   7
  221                map_scatter                           0.002427                   60   7
  222              map_backward                          0.005806                    144   6
  223                map_gather                            0.001382                   72   7
  224                m_alltoallv_z                         0.000766                   72   7
  225                map_scatter                           0.002627                   72   7
  226        m_sumb_d                              0.000153                           30   3
  227        forhar                                0.008085                           12   3
  228          m_sumb_d                              0.000094                         12   4
  229        strehar                               0.005223                            6   3
  230          m_sumb_d                              0.000190                          6   4
  231        chggra                                0.004247                            6   3
  232          fft3d_mpi                             0.002528                         18   4
  233            fftbrc_mpi                            0.001968                       18   5
  234              fftbas_plan_mpi                       0.001963                     18   6
  235                map_forward                           0.000989                   24   7
  236                  map_gather                            0.000238                 12   8
  237                  m_alltoallv_z                         0.000143                 12   8
  238                  map_scatter                           0.000448                 12   8
  239                map_backward                          0.000472                   12   7
  240                  map_gather                            0.000113                  6   8
  241                  m_alltoallv_z                         0.000064                  6   8
  242                  map_scatter                           0.000211                  6   8
  243          m_sumb_d                              0.000057                         12   4
  244          pothar                                0.000442                          6   4
  245            m_sumb_d                              0.000038                        6   5
  246        brmix                                 0.009816                            6   3
  247          m_sumb_d                              0.000249                         36   4
  248          brpre                                 0.000094                         12   4
  249          setg0                                 0.003182                          6   4
  250          broyd                                 0.002807                          6   4
  251            m_sumb_d                              0.000650                       93   5
  252            brsav                                 0.000195                       83   5
  253            brget                                 0.000686                      309   5
  254        m_bcast_d                             0.000094                           12   3
  255      potlok                                0.033978                              6   2
  256        fft3d_mpi                             0.022671                          156   3
  257          fftbrc_mpi                            0.017523                        156   4
  258            fftbas_plan_mpi                       0.017453                      156   5
  259              map_forward                           0.007404                    168   6
  260                map_gather                            0.001842                   96   7
  261                m_alltoallv_z                         0.000955                   96   7
  262                map_scatter                           0.003632                   96   7
  263              map_backward                          0.005722                    144   6
  264                map_gather                            0.001379                   72   7
  265                m_alltoallv_z                         0.000765                   72   7
  266                map_scatter                           0.002570                   72   7
  267        m_sumb_d                              0.000158                           30   3
  268        pothar                                0.000467                            6   3
  269          m_sumb_d                              0.000042                          6   4
  270        m_bcast_d                             0.000157                           12   3
  271      potlok_metagga                        0.000002                              6   2
  272      set_dd_magatom                        0.000020                              6   2
  273      set_dd_paw                            0.043151                              6   2
  274        m_sumb_d                              0.003862                           42   3
  275      wavpre_noio                           0.106231                              5   2
  276        stufak                                0.012298                            5   3
  277      densta                                0.005938                              1   2
  278        m_sumb_d                              0.000639                           39   3
 
 Flat profile
 ============
 
             routine name                   CPU           calls
 ---------------------------------------------------------------
 eddav                                 109.087905          87
 lapack                                104.966911      230597
 m_sumb_d                               64.911234      712448
 raccmu_                                57.082383      230597
 redis_pw                               45.264556     1282350
 phaser                                 26.112647       18648
 m_alltoall_d                           23.771253     3401518
 eccp                                   11.286084      128760
 redis_proj                             10.899745     1615672
 fft3d                                  10.753744     1438037
 fftwav                                 10.231852      976843
 rpromu_acc                             10.136648      200849
 init_acc                                9.812407           1
 orth1                                   7.735529      693567
 rpro_isp                                7.178482        5772
 w1_copy                                 6.727353     1383582
 overl                                   6.693321      794516
 racc0mu_acc                             6.681376      230597
 total_time                              5.304837           1
 hamiltmu                                4.948693      230597
 m_bcast_z                               4.826258      236517
 soft_charge                             4.742611          57
 setup_precond                           4.658257      128760
 m_bcast_d                               3.824552      461345
 overl_mu                                3.549585      230597
 ggemm                                   3.157555      294977
 acc_init_cublas                         2.456202           1
 kinhamil                                2.108019      461194
 vhamil                                  2.101338      461194
 newband                                 1.940403      243473
 fftext_mpi                              1.924991      461194
 apply_precond                           1.843122      332434
 pw_charge                               1.781417       67775
 depsum                                  1.349270          57
 fftwav_mpi                              1.266381      976843
 setdij_                                 1.050730         220
 acc_init_cusolver                       0.795700           1
 rspher_all                              0.474688          79
 set_dd_paw                              0.448502          69
 lincom                                  0.401967       13764
 augmentation_charge                     0.293211          57
 elmin                                   0.265352           6
 fft3d_mpi                               0.229630      463220
 orthch                                  0.228450           6
 potlok                                  0.183047          63
 sphpro_fast                             0.181351           7
 m_alltoallv_z                           0.172155        2266
 proall                                  0.171292           6
 densta                                  0.159984          88
 w1_projall                              0.157236      166217
 map_scatter                             0.141416        2266
 acc_cufft_makeplan                      0.124975          19
 choleski                                0.108837         888
 strnlr                                  0.107360           6
 wavpre_noio                             0.093933           5
 force_and_stress                        0.080184           6
 fftbas_plan_mpi                         0.076055        2026
 dfftw_execute                           0.065118         714
 map_gather                              0.065054        2266
 truncate_high_frequency_w1              0.045625      589954
 fornlr                                  0.041791           6
 brmix                                   0.033724          57
 setg0                                   0.029660          69
 broyd                                   0.019214          57
 stufak                                  0.015310           6
 map_backward                            0.012495        2124
 map_forward                             0.011824        1928
 set_charge                              0.008018          57
 forhar                                  0.007991          12
 strelo                                  0.007282           6
 strehar                                 0.005033           6
 pothar                                  0.004917          69
 brget                                   0.004678        2137
 strkin                                  0.004616           6
 forloc                                  0.004065           6
 brsav                                   0.001409         625
 fft_gq                                  0.001398          57
 chggra                                  0.001219           6
 fftbrc_mpi                              0.001094        2026
 rsp                                     0.001013           6
 brpre                                   0.000911         114
 fewald                                  0.000381           6
 set_dd_magatom                          0.000273          69
 vectorpot                               0.000237          58
 brgrid                                  0.000135           1
 fordep                                  0.000094           6
 rcp                                     0.000085           6
 crpa_reader                             0.000029           1
 acc_cufft_makeplans                     0.000012           3
 potlok_metagga                          0.000006          63
 redis_pw_over_bands                     0.000001           6
 rotate_active_occupied_orbital          0.000001           6
 ---------------------------------------------------------------
  summed up times     587.4576909542084     
 
 Accumulative profile
 ====================
 
             routine name                   CPU           calls
 ---------------------------------------------------------------
 total_time                            587.457691           1
 elmin                                 539.826545           6
 eddav                                 528.592162          87
 lapack                                104.966911      230597
 hamiltmu                               81.849954      230597
 raccmu_                                67.313344      230597
 m_sumb_d                               64.911234      712448
 redis_pw                               56.968825     1282350
 newband                                27.619846      243473
 phaser                                 26.112647       18648
 force_and_stress                       25.707761           6
 m_alltoall_d                           23.771253     3401518
 redis_proj                             22.966728     1615672
 fftwav_mpi                             18.934120      976843
 strnlr                                 17.731143           6
 fftwav                                 17.667739      976843
 rpro_isp                               15.944135        5772
 eccp                                   11.286084      128760
 fft3d                                  10.753744     1438037
 set_charge                             10.548558          57
 rpromu_acc                             10.136648      200849
 init_acc                                9.812407           1
 soft_charge                             8.749535          57
 orth1                                   7.735529      693567
 kinhamil                                7.486579      461194
 w1_copy                                 6.727353     1383582
 overl                                   6.693321      794516
 racc0mu_acc                             6.681376      230597
 fornlr                                  5.919312           6
 fftext_mpi                              5.378560      461194
 w1_projall                              4.953732      166217
 m_bcast_z                               4.826258      236517
 setup_precond                           4.658257      128760
 fft3d_mpi                               4.092698      463220
 m_bcast_d                               3.824552      461345
 overl_mu                                3.549585      230597
 ggemm                                   3.157555      294977
 acc_init_cublas                         2.456202           1
 vhamil                                  2.101338      461194
 apply_precond                           1.843122      332434
 pw_charge                               1.781417       67775
 orthch                                  1.439742           6
 depsum                                  1.362704          57
 proall                                  1.284455           6
 setdij_                                 1.086470         220
 acc_init_cusolver                       0.795700           1
 potlok                                  0.598693          63
 fftbrc_mpi                              0.545211        2026
 fftbas_plan_mpi                         0.544117        2026
 set_dd_paw                              0.490860          69
 rspher_all                              0.474688          79
 augmentation_charge                     0.428302          57
 lincom                                  0.401967       13764
 map_forward                             0.251597        1928
 sphpro_fast                             0.187273           7
 densta                                  0.179360          88
 fordep                                  0.178634           6
 m_alltoallv_z                           0.172155        2266
 map_backward                            0.151346        2124
 map_scatter                             0.141416        2266
 acc_cufft_makeplans                     0.124987           3
 acc_cufft_makeplan                      0.124975          19
 choleski                                0.108837         888
 wavpre_noio                             0.106231           5
 brmix                                   0.097365          57
 dfftw_execute                           0.065118         714
 map_gather                              0.065054        2266
 fft_gq                                  0.063392          57
 truncate_high_frequency_w1              0.045625      589954
 broyd                                   0.030095          57
 setg0                                   0.029660          69
 stufak                                  0.015310           6
 forhar                                  0.008085          12
 strelo                                  0.007755           6
 pothar                                  0.005420          69
 strehar                                 0.005223           6
 brget                                   0.004678        2137
 strkin                                  0.004654           6
 forloc                                  0.004479           6
 chggra                                  0.004247           6
 fewald                                  0.002364           6
 brsav                                   0.001409         625
 rsp                                     0.001013           6
 brpre                                   0.000911         114
 set_dd_magatom                          0.000273          69
 vectorpot                               0.000237          58
 brgrid                                  0.000135           1
 rcp                                     0.000085           6
 crpa_reader                             0.000029           1
 potlok_metagga                          0.000006          63
 redis_pw_over_bands                     0.000001           6
 rotate_active_occupied_orbital          0.000001           6
 ---------------------------------------------------------------
 
Profiling took   2.841979  1.413378  0.003186  0.003125 seconds
Profiling took   1.757707 seconds
