 vasp.6.3.2 27Jun22 (build Jul  3 2023 11:46:21) complex                         
 executed on    LinuxNV_CrayMPICH date 2024.04.21  01:11:07
 running on    4 total cores
 distrk:  each k-point on    4 cores,    1 groups
 distr:  one band on NCORE=   1 cores,    4 groups


--------------------------------------------------------------------------------------------------------


 INCAR:
   ADDGRID = True
   ALGO = Fast
   EDIFF = 5e-05
   ENCUT = 520.0
   IBRION = -1
   ISIF = 3
   ISMEAR = -5
   ISPIN = 2
   LAECHG = True
   LASPH = True
   LCHARG = True
   LORBIT = 11
   LREAL = Auto
   LVHAR = True
   LWAVE = False
   MAGMOM = 1*7.0 4*0.6
   NELM = 1000
   NSW = 0
   PREC = Accurate
   SIGMA = 0.05

 POTCAR:    PAW_PBE Eu 23Dec2003                  
 POTCAR:    PAW_PBE Ge_d 03Jul2007                
 POTCAR:    PAW_PBE Rh_pv 25Jan2005               
 POTCAR:    PAW_PBE Eu 23Dec2003                  
   SHA256 =  ed303d27e7c5191953f9b15539336e6f36d9037c1d2e92e80c13d733697cb93d Eu/POTCAR             
   COPYR  = (c) Copyright 23Dec2003 Georg Kresse                                                    
   COPYR  = This file is part of the software VASP. Any use, copying, and all other rights are regul
   COPYR  = If you do not have a valid VASP license, you may not use, copy or distribute this file. 
   VRHFIN =Eu : [core=Kr4d]                                                                         
   LEXCH  = PE                                                                                      
   EATOM  =  2619.8085 eV,  192.5505 Ry                                                             
                                                                                                    
   TITEL  = PAW_PBE Eu 23Dec2003                                                                    
   LULTRA =        F    use ultrasoft PP ?                                                          
   IUNSCR =        1    unscreen: 0-lin 1-nonlin 2-no                                               
   RPACOR =    2.300    partial core radius                                                         
   POMASS =  151.965; ZVAL   =   17.000    mass and valenz                                          
   RCORE  =    2.800    outmost cutoff radius                                                       
   RWIGS  =    2.800; RWIGS  =    1.482    wigner-seitz radius (au A)                               
   ENMAX  =  249.668; ENMIN  =  187.251 eV                                                          
   RCLOC  =    2.308    cutoff for local pot                                                        
   LCOR   =        T    correct aug charges                                                         
   LPAW   =        T    paw PP                                                                      
   EAUG   =  549.628                                                                                
   DEXC   =    0.000                                                                                
   RMAX   =    2.870    core radius for proj-oper                                                   
   RAUG   =    1.300    factor for augmentation sphere                                              
   RDEP   =    2.887    radius for radial grids                                                     
   RDEPT  =    2.221    core radius for aug-charge                                                  
                                                                                                    
   Atomic configuration                                                                             
   14 entries                                                                                       
     n  l   j            E        occ.                                                              
     1  0  0.50    -48354.7667   2.0000                                                             
     2  0  0.50     -7939.6472   2.0000                                                             
     2  1  1.50     -7072.6637   6.0000                                                             
     3  0  0.50     -1747.1875   2.0000                                                             
     3  1  1.50     -1477.5221   6.0000                                                             
     3  2  2.50     -1117.4686  10.0000                                                             
     4  0  0.50      -346.8682   2.0000                                                             
     4  1  1.50      -258.1962   6.0000                                                             
     4  2  2.50      -134.7724  10.0000                                                             
     5  0  0.50       -44.6510   2.0000                                                             
     6  0  0.50        -3.6227   2.0000                                                             
     5  1  1.50       -23.7639   6.0000                                                             
     5  2  2.50        -1.3130   0.0000                                                             
     4  3  2.50        -2.7310   7.0000                                                             
   Description                                                                                      
     l       E           TYP  RCUT    TYP  RCUT                                                     
     0    -44.6510453     23  2.400                                                                 
     0     -3.6226685     23  2.400                                                                 
     1    -23.7638687     23  2.400                                                                 
     1     27.2116520     23  2.400                                                                 
     2     -1.3129622     23  2.500                                                                 
     2     13.6058260     23  2.500                                                                 
     3     -2.7309948     23  2.800                                                                 
     3     -3.4014565     23  2.800                                                                 
  local pseudopotential read in
  partial core-charges read in
  partial kinetic energy density read in
  atomic valenz-charges read in
  non local Contribution for L=            0  read in
    real space projection operators read in
  non local Contribution for L=            0  read in
    real space projection operators read in
  non local Contribution for L=            1  read in
    real space projection operators read in
  non local Contribution for L=            1  read in
    real space projection operators read in
  non local Contribution for L=            2  read in
    real space projection operators read in
  non local Contribution for L=            2  read in
    real space projection operators read in
  non local Contribution for L=            3  read in
    real space projection operators read in
  non local Contribution for L=            3  read in
    real space projection operators read in
    PAW grid and wavefunctions read in
 
   number of l-projection  operators is LMAX  =            8
   number of lm-projection operators is LMMAX =           32
 
 POTCAR:    PAW_PBE Ge_d 03Jul2007                
   SHA256 =  944b26c40d2d7c4f4eb1ff3a2e8dbfdd7129146276cd341854bfd5c0e57780ed Ge_d/POTCAR           
   COPYR  = (c) Copyright 03Jul2007 Georg Kresse                                                    
   COPYR  = This file is part of the software VASP. Any use, copying, and all other rights are regul
   COPYR  = If you do not have a valid VASP license, you may not use, copy or distribute this file. 
   VRHFIN =Ge: 3d4s4p                                                                               
   LEXCH  = PE                                                                                      
   EATOM  =  2596.2402 eV,  190.8183 Ry                                                             
                                                                                                    
   TITEL  = PAW_PBE Ge_d 03Jul2007                                                                  
   LULTRA =        F    use ultrasoft PP ?                                                          
   IUNSCR =        1    unscreen: 0-lin 1-nonlin 2-no                                               
   RPACOR =    2.000    partial core radius                                                         
   POMASS =   72.610; ZVAL   =   14.000    mass and valenz                                          
   RCORE  =    2.300    outmost cutoff radius                                                       
   RWIGS  =    2.300; RWIGS  =    1.217    wigner-seitz radius (au A)                               
   ENMAX  =  310.294; ENMIN  =  232.720 eV                                                          
   ICORE  =        3    local potential                                                             
   LCOR   =        T    correct aug charges                                                         
   LPAW   =        T    paw PP                                                                      
   EAUG   =  531.356                                                                                
   DEXC   =    0.000                                                                                
   RMAX   =    2.342    core radius for proj-oper                                                   
   RAUG   =    1.300    factor for augmentation sphere                                              
   RDEP   =    2.318    radius for radial grids                                                     
   RDEPT  =    1.783    core radius for aug-charge                                                  
                                                                                                    
   Atomic configuration                                                                             
    9 entries                                                                                       
     n  l   j            E        occ.                                                              
     1  0  0.50    -10959.8463   2.0000                                                             
     2  0  0.50     -1371.6056   2.0000                                                             
     2  1  1.50     -1198.4791   6.0000                                                             
     3  0  0.50      -168.4733   2.0000                                                             
     3  1  1.50      -115.6019   6.0000                                                             
     3  2  2.50       -29.3106  10.0000                                                             
     4  0  0.50       -11.7309   2.0000                                                             
     4  1  0.50        -3.8952   2.0000                                                             
     4  3  2.50        -4.0817   0.0000                                                             
   Description                                                                                      
     l       E           TYP  RCUT    TYP  RCUT                                                     
     2    -29.3105938     23  2.200                                                                 
     2    -13.6058260     23  2.200                                                                 
     0    -11.7309493     23  2.300                                                                 
     0     -7.4578696     23  2.300                                                                 
     1     -3.8952261     23  2.300                                                                 
     1      6.1178114     23  2.300                                                                 
     3     -1.3605826     23  2.300                                                                 
  local pseudopotential read in
  partial core-charges read in
  partial kinetic energy density read in
  atomic valenz-charges read in
  non local Contribution for L=            2  read in
    real space projection operators read in
  non local Contribution for L=            2  read in
    real space projection operators read in
  non local Contribution for L=            0  read in
    real space projection operators read in
  non local Contribution for L=            0  read in
    real space projection operators read in
  non local Contribution for L=            1  read in
    real space projection operators read in
  non local Contribution for L=            1  read in
    real space projection operators read in
    PAW grid and wavefunctions read in
 
   number of l-projection  operators is LMAX  =            6
   number of lm-projection operators is LMMAX =           18
 
 POTCAR:    PAW_PBE Rh_pv 25Jan2005               
   SHA256 =  25b11608b0d10a93adcc8487bc062d7eb8aeda443ca523c31dcc1b5e75119ef1 Rh_pv/POTCAR          
   COPYR  = (c) Copyright 25Jan2005 Georg Kresse                                                    
   COPYR  = This file is part of the software VASP. Any use, copying, and all other rights are regul
   COPYR  = If you do not have a valid VASP license, you may not use, copy or distribute this file. 
   VRHFIN =Rh: 4p5s4d                                                                               
   LEXCH  = PE                                                                                      
   EATOM  =  2226.4782 eV,  163.6415 Ry                                                             
                                                                                                    
   TITEL  = PAW_PBE Rh_pv 25Jan2005                                                                 
   LULTRA =        F    use ultrasoft PP ?                                                          
   IUNSCR =        1    unscreen: 0-lin 1-nonlin 2-no                                               
   RPACOR =    2.000    partial core radius                                                         
   POMASS =  102.906; ZVAL   =   15.000    mass and valenz                                          
   RCORE  =    2.400    outmost cutoff radius                                                       
   RWIGS  =    2.650; RWIGS  =    1.402    wigner-seitz radius (au A)                               
   ENMAX  =  247.408; ENMIN  =  185.556 eV                                                          
   ICORE  =        3    local potential                                                             
   LCOR   =        T    correct aug charges                                                         
   LPAW   =        T    paw PP                                                                      
   EAUG   =  425.654                                                                                
   DEXC   =    0.000                                                                                
   RMAX   =    2.461    core radius for proj-oper                                                   
   RAUG   =    1.300    factor for augmentation sphere                                              
   RDEP   =    2.536    radius for radial grids                                                     
   RDEPT  =    1.975    core radius for aug-charge                                                  
                                                                                                    
   Atomic configuration                                                                             
   11 entries                                                                                       
     n  l   j            E        occ.                                                              
     1  0  0.50    -23034.1986   2.0000                                                             
     2  0  0.50     -3339.2387   2.0000                                                             
     2  1  1.50     -2992.3290   6.0000                                                             
     3  0  0.50      -596.7250   2.0000                                                             
     3  1  1.50      -482.7183   6.0000                                                             
     3  2  2.50      -300.5356  10.0000                                                             
     4  0  0.50       -82.4809   2.0000                                                             
     4  1  0.50       -50.4082   6.0000                                                             
     4  2  2.50        -5.9408   8.0000                                                             
     5  0  0.50        -4.2999   1.0000                                                             
     4  3  2.50        -1.3606   0.0000                                                             
   Description                                                                                      
     l       E           TYP  RCUT    TYP  RCUT                                                     
     1    -50.4082326     23  2.100                                                                 
     1      4.0817478     23  2.100                                                                 
     2     -5.9408148     23  2.400                                                                 
     2     -7.3013974     23  2.400                                                                 
     0     -4.2998579     23  2.400                                                                 
     0     13.6058260     23  2.400                                                                 
     3     -4.0817478     23  2.400                                                                 
  local pseudopotential read in
  partial core-charges read in
  partial kinetic energy density read in
  atomic valenz-charges read in
  non local Contribution for L=            1  read in
    real space projection operators read in
  non local Contribution for L=            1  read in
    real space projection operators read in
  non local Contribution for L=            2  read in
    real space projection operators read in
  non local Contribution for L=            2  read in
    real space projection operators read in
  non local Contribution for L=            0  read in
    real space projection operators read in
  non local Contribution for L=            0  read in
    real space projection operators read in
    PAW grid and wavefunctions read in
 
   number of l-projection  operators is LMAX  =            6
   number of lm-projection operators is LMMAX =           18
 
 -----------------------------------------------------------------------------
|                                                                             |
|               ----> ADVICE to this user running VASP <----                  |
|                                                                             |
|     You have a (more or less) 'small supercell' and for smaller cells       |
|     it is recommended to use the reciprocal-space projection scheme!        |
|     The real-space optimization is not efficient for small cells and it     |
|     is also less accurate ...                                               |
|     Therefore, set LREAL=.FALSE. in the INCAR file.                         |
|                                                                             |
 -----------------------------------------------------------------------------

 Optimization of the real space projectors (new method)

 maximal supplied QI-value         = 13.42
 optimisation between [QCUT,QGAM] = [ 11.67, 23.35] = [ 38.16,152.62] Ry 
 Optimized for a Real-space Cutoff    1.63 Angstroem

   l    n(q)    QCUT    max X(q) W(low)/X(q) W(high)/X(q)  e(spline) 
   0     11    11.673    10.400    0.14E-04    0.18E-05    0.24E-07
   0     11    11.673    10.768    0.21E-04    0.32E-05    0.49E-07
   1     11    11.673     4.094    0.40E-05    0.13E-04    0.93E-07
   1     11    11.673     4.009    0.11E-04    0.46E-04    0.33E-06
   2     10    11.673    29.030    0.79E-04    0.60E-04    0.70E-06
   2     10    11.673    19.941    0.80E-04    0.60E-04    0.71E-06
   3     10    11.673    88.889    0.23E-03    0.29E-03    0.30E-06
   3     10    11.673    76.102    0.23E-03    0.30E-03    0.30E-06
 Optimization of the real space projectors (new method)

 maximal supplied QI-value         = 16.25
 optimisation between [QCUT,QGAM] = [ 11.54, 23.24] = [ 37.28,151.24] Ry 
 Optimized for a Real-space Cutoff    1.53 Angstroem

   l    n(q)    QCUT    max X(q) W(low)/X(q) W(high)/X(q)  e(spline) 
   2     10    11.539     8.936    0.13E-03    0.18E-03    0.23E-06
   2     10    11.539     8.183    0.16E-03    0.22E-03    0.28E-06
   0     11    11.539    62.777    0.61E-04    0.20E-04    0.15E-06
   0     11    11.539    50.556    0.58E-04    0.19E-04    0.14E-06
   1     10    11.539    38.422    0.20E-04    0.75E-05    0.16E-06
   1     10    11.539    22.623    0.19E-04    0.69E-05    0.15E-06
 Optimization of the real space projectors (new method)

 maximal supplied QI-value         = 15.68
 optimisation between [QCUT,QGAM] = [ 11.61, 23.21] = [ 37.72,150.90] Ry 
 Optimized for a Real-space Cutoff    1.45 Angstroem

   l    n(q)    QCUT    max X(q) W(low)/X(q) W(high)/X(q)  e(spline) 
   1     10    11.607     3.143    0.27E-04    0.48E-04    0.10E-06
   1     10    11.607     5.034    0.71E-04    0.17E-03    0.32E-06
   2      9    11.607    64.180    0.22E-03    0.59E-04    0.28E-06
   2      9    11.607    61.342    0.22E-03    0.61E-04    0.29E-06
   0     10    11.607    55.593    0.52E-04    0.32E-04    0.17E-06
   0     10    11.607    26.178    0.47E-04    0.29E-04    0.15E-06
  PAW_PBE Eu 23Dec2003                  :
 energy of atom  1       EATOM=-2619.8085
 kinetic energy error for atom=    0.0015 (will be added to EATOM!!)
  PAW_PBE Ge_d 03Jul2007                :
 energy of atom  2       EATOM=-2596.2402
 kinetic energy error for atom=    0.0028 (will be added to EATOM!!)
  PAW_PBE Rh_pv 25Jan2005               :
 energy of atom  3       EATOM=-2226.4782
 kinetic energy error for atom=    0.0084 (will be added to EATOM!!)
 
 
 POSCAR: Eu1 Ge2 Rh2
  positions in direct lattice
  No initial velocities read in
 exchange correlation table for  LEXCH =        8
   RHO(1)=    0.500       N(1)  =     2000
   RHO(2)=  100.500       N(2)  =     4000

 VTST: version 4.2, (08/11/21)

 CHAIN: initializing optimizer
 
 OPT: Using VASP Dynamics algorithm
 CHAIN: Read ICHAIN             0
 
 POSCAR: Eu1 Ge2 Rh2
  positions in direct lattice
  No initial velocities read in
 


--------------------------------------------------------------------------------------------------------


 ion  position               nearest neighbor table
   1  0.000  0.000  0.000-   4 3.40   5 3.40   4 3.40   5 3.40   4 3.40   5 3.40   4 3.40   5 3.40

   2  0.371  0.371  0.000-   4 2.47   5 2.47   5 2.47   4 2.47   3 2.75
   3  0.629  0.629  0.000-   5 2.47   4 2.47   4 2.47   5 2.47   2 2.75
   4  0.750  0.250  0.500-   2 2.47   3 2.47   2 2.47   3 2.47   5 2.97   5 2.97   5 2.97   5 2.97
                             1 3.40   1 3.40   1 3.40   1 3.40
   5  0.250  0.750  0.500-   2 2.47   3 2.47   2 2.47   3 2.47   4 2.97   4 2.97   4 2.97   4 2.97
                             1 3.40   1 3.40   1 3.40   1 3.40
 
  LATTYP: Found a body centered tetragonal cell.
 ALAT       =     4.2018340000
 C/A-ratio  =     2.5443865702
  
  Lattice vectors:
  
 A1 = (  -2.1009170000,   2.1009170000,   5.3455450000)
 A2 = (   2.1009170000,  -2.1009170000,   5.3455450000)
 A3 = (   2.1009170000,   2.1009170000,  -5.3455450000)


Analysis of symmetry for initial positions (statically):
=====================================================================
 Subroutine PRICEL returns:
 Original cell was already a primitive cell.
 

 Routine SETGRP: Setting up the symmetry group for a 
 body centered tetragonal supercell.


 Subroutine GETGRP returns: Found 16 space group operations
 (whereof 16 operations were pure point group operations)
 out of a pool of 16 trial point group operations.


The static configuration has the point symmetry D_4h.


Analysis of symmetry for dynamics (positions and initial velocities):
=====================================================================
 Subroutine PRICEL returns:
 Original cell was already a primitive cell.
 

 Routine SETGRP: Setting up the symmetry group for a 
 body centered tetragonal supercell.


 Subroutine GETGRP returns: Found 16 space group operations
 (whereof 16 operations were pure point group operations)
 out of a pool of 16 trial point group operations.


The dynamic configuration has the point symmetry D_4h.


Analysis of structural, dynamic, and magnetic symmetry:
=====================================================================
 Subroutine PRICEL returns:
 Original cell was already a primitive cell.
 

 Routine SETGRP: Setting up the symmetry group for a 
 body centered tetragonal supercell.


 Subroutine GETGRP returns: Found 16 space group operations
 (whereof 16 operations were pure point group operations)
 out of a pool of 16 trial point group operations.


The overall configuration has the point symmetry D_4h.


 Subroutine INISYM returns: Found 16 space group operations
 (whereof 16 operations are pure point group operations),
 and found     1 'primitive' translations


----------------------------------------------------------------------------------------

                                     Primitive cell                                     

  volume of cell :      94.3778

  direct lattice vectors                    reciprocal lattice vectors
    -2.100917000  2.100917000  5.345545000    -0.000000000  0.237991315  0.093535832
     2.100917000 -2.100917000  5.345545000     0.237991315 -0.000000000  0.093535832
     2.100917000  2.100917000 -5.345545000     0.237991315  0.237991315 -0.000000000

  length of vectors
     6.115762898  6.115762898  6.115762898     0.255712374  0.255712374  0.336570546

  position of ions in fractional coordinates (direct lattice)
     0.000000000  0.000000000  0.000000000
     0.371221000  0.371221000  1.000000000
     0.628779000  0.628779000  1.000000000
     0.750000000  0.250000000  0.500000000
     0.250000000  0.750000000  0.500000000

  ion indices of the primitive-cell ions
   primitive index   ion index
                 1           1
                 2           2
                 3           3
                 4           4
                 5           5

----------------------------------------------------------------------------------------

 
 
 KPOINTS: Kpoints from vasprun.xml                

Automatic generation of k-mesh.
 Grid dimensions read from file:
 generate k-points for:    6    6    6

 Generating k-lattice:

  Cartesian coordinates                     Fractional coordinates (reciprocal lattice)
    -0.000000000  0.039665219  0.015589305     0.166666667  0.000000000 -0.000000000
     0.039665219 -0.000000000  0.015589305     0.000000000  0.166666667 -0.000000000
     0.039665219  0.039665219 -0.000000000    -0.000000000 -0.000000000  0.166666667

  Length of vectors
     0.042618729  0.042618729  0.056095091

  Shift w.r.t. Gamma in fractional coordinates (k-lattice)
     0.500000000  0.500000000  0.500000000

 TETIRR: Found    278 inequivalent tetrahedra from     1296
 
 Subroutine IBZKPT returns following result:
 ===========================================
 
 Found     28 irreducible k-points:
 
 Following reciprocal coordinates:
            Coordinates               Weight
  0.083333  0.083333  0.083333      8.000000
  0.250000  0.083333  0.083333     16.000000
  0.416667  0.083333  0.083333      8.000000
 -0.083333  0.083333  0.083333      4.000000
  0.250000  0.250000  0.083333      8.000000
  0.416667  0.250000  0.083333     16.000000
 -0.416667  0.250000  0.083333      8.000000
 -0.250000  0.250000  0.083333      8.000000
 -0.083333  0.250000  0.083333      8.000000
  0.416667  0.416667  0.083333      4.000000
 -0.416667  0.416667  0.083333      8.000000
 -0.250000  0.416667  0.083333     16.000000
 -0.083333  0.416667  0.083333      8.000000
 -0.416667 -0.416667  0.083333      8.000000
 -0.250000 -0.416667  0.083333     16.000000
 -0.083333 -0.416667  0.083333      8.000000
 -0.250000 -0.250000  0.083333      8.000000
 -0.083333 -0.250000  0.083333      8.000000
 -0.083333 -0.083333  0.083333      2.000000
  0.250000  0.250000  0.250000      2.000000
 -0.250000  0.250000  0.250000      4.000000
 -0.416667  0.416667  0.250000      8.000000
 -0.250000  0.416667  0.250000      8.000000
 -0.416667 -0.416667  0.250000      8.000000
 -0.250000 -0.416667  0.250000      8.000000
 -0.250000 -0.250000  0.250000      2.000000
 -0.416667  0.416667  0.416667      4.000000
 -0.416667 -0.416667  0.416667      2.000000
 
 Following cartesian coordinates:
            Coordinates               Weight
  0.039665  0.039665  0.015589      8.000000
  0.039665  0.079330  0.031179     16.000000
  0.039665  0.118996  0.046768      8.000000
  0.039665  0.000000  0.000000      4.000000
  0.079330  0.079330  0.046768      8.000000
  0.079330  0.118996  0.062357     16.000000
  0.079330 -0.079330 -0.015589      8.000000
  0.079330 -0.039665  0.000000      8.000000
  0.079330  0.000000  0.015589      8.000000
  0.118996  0.118996  0.077947      4.000000
  0.118996 -0.079330  0.000000      8.000000
  0.118996 -0.039665  0.015589     16.000000
  0.118996  0.000000  0.031179      8.000000
 -0.079330 -0.079330 -0.077947      8.000000
 -0.079330 -0.039665 -0.062357     16.000000
 -0.079330  0.000000 -0.046768      8.000000
 -0.039665 -0.039665 -0.046768      8.000000
 -0.039665  0.000000 -0.031179      8.000000
  0.000000  0.000000 -0.015589      2.000000
  0.118996  0.118996  0.046768      2.000000
  0.118996  0.000000  0.000000      4.000000
  0.158661 -0.039665  0.000000      8.000000
  0.158661  0.000000  0.015589      8.000000
 -0.039665 -0.039665 -0.077947      8.000000
 -0.039665  0.000000 -0.062357      8.000000
  0.000000  0.000000 -0.046768      2.000000
  0.198326  0.000000  0.000000      4.000000
  0.000000  0.000000 -0.077947      2.000000
 


--------------------------------------------------------------------------------------------------------




 Dimension of arrays:
   k-points           NKPTS =     28   k-points in BZ     NKDIM =     28   number of bands    NBANDS=     52
   number of dos      NEDOS =    301   number of ions     NIONS =      5
   non local maximal  LDIM  =      8   non local SUM 2l+1 LMDIM =     32
   total plane-waves  NPLWV = 110592
   max r-space proj   IRMAX =  21198   max aug-charges    IRDMAX= 536055
   dimension x,y,z NGX =    48 NGY =   48 NGZ =   48
   dimension x,y,z NGXF=    96 NGYF=   96 NGZF=   96
   support grid    NGXF=   192 NGYF=  192 NGZF=  192
   ions per type =               1   2   2
   NGX,Y,Z   is equivalent  to a cutoff of  13.05, 13.05, 13.05 a.u.
   NGXF,Y,Z  is equivalent  to a cutoff of  26.10, 26.10, 26.10 a.u.

 SYSTEM =  unknown system                          
 POSCAR =  Eu1 Ge2 Rh2                             

 Startparameter for this run:
   NWRITE =      2    write-flag & timer
   PREC   = accura    normal or accurate (medium, high low for compatibility)
   ISTART =      0    job   : 0-new  1-cont  2-samecut
   ICHARG =      2    charge: 1-file 2-atom 10-const
   ISPIN  =      2    spin polarized calculation?
   LNONCOLLINEAR =      F non collinear calculations
   LSORBIT =      F    spin-orbit coupling
   INIWAV =      1    electr: 0-lowe 1-rand  2-diag
   LASPH  =      T    aspherical Exc in radial PAW
 Electronic Relaxation 1
   ENCUT  =  520.0 eV  38.22 Ry    6.18 a.u.  11.37 11.37 11.37*2*pi/ulx,y,z
   ENINI  =  520.0     initial cutoff
   ENAUG  =  549.6 eV  augmentation charge cutoff
   NELM   =   1000;   NELMIN=  2; NELMDL= -5     # of ELM steps 
   EDIFF  = 0.5E-04   stopping-criterion for ELM
   LREAL  =      T    real-space projection
   NLSPLINE    = F    spline interpolate recip. space projectors
   LCOMPAT=      F    compatible to vasp.4.4
   GGA_COMPAT  = T    GGA compatible to vasp.4.4-vasp.4.6
   LMAXPAW     = -100 max onsite density
   LMAXMIX     =    2 max onsite mixed and CHGCAR
   VOSKOWN=      0    Vosko Wilk Nusair interpolation
   ROPT   =   -0.00025  -0.00025  -0.00025
 Ionic relaxation
   EDIFFG = 0.5E-03   stopping-criterion for IOM
   NSW    =      0    number of steps for IOM
   NBLOCK =      1;   KBLOCK =      1    inner block; outer block 
   IBRION =     -1    ionic relax: 0-MD 1-quasi-New 2-CG
   NFREE  =      0    steps in history (QN), initial steepest desc. (CG)
   ISIF   =      3    stress and relaxation
   IWAVPR =     10    prediction:  0-non 1-charg 2-wave 3-comb
   ISYM   =      2    0-nonsym 1-usesym 2-fastsym
   LCORR  =      T    Harris-Foulkes like correction to forces

   POTIM  = 0.5000    time-step for ionic-motion
   TEIN   =    0.0    initial temperature
   TEBEG  =    0.0;   TEEND  =   0.0 temperature during run
   SMASS  =  -3.00    Nose mass-parameter (am)
   estimated Nose-frequenzy (Omega)   =  0.10E-29 period in steps = 0.13E+47 mass=  -0.855E-27a.u.
   SCALEE = 1.0000    scale energy and forces
   NPACO  =    256;   APACO  = 10.0  distance and # of slots for P.C.
   PSTRESS=    0.0 pullay stress

  Mass of Ions in am
   POMASS = 151.97 72.61102.91
  Ionic Valenz
   ZVAL   =  17.00 14.00 15.00
  Atomic Wigner-Seitz radii
   RWIGS  =  -1.00 -1.00 -1.00
  virtual crystal weights 
   VCA    =   1.00  1.00  1.00
   NELECT =      75.0000    total number of electrons
   NUPDOWN=      -1.0000    fix difference up-down

 DOS related values:
   EMIN   =  10.00;   EMAX   =-10.00  energy-range for DOS
   EFERMI =   0.00
   ISMEAR =    -5;   SIGMA  =   0.05  broadening in eV -4-tet -1-fermi 0-gaus

 Electronic relaxation 2 (details)
   IALGO  =     68    algorithm
   LDIAG  =      T    sub-space diagonalisation (order eigenvalues)
   LSUBROT=      F    optimize rotation matrix (better conditioning)
   TURBO    =      0    0=normal 1=particle mesh
   IRESTART =      0    0=no restart 2=restart with 2 vectors
   NREBOOT  =      0    no. of reboots
   NMIN     =      0    reboot dimension
   EREF     =   0.00    reference energy to select bands
   IMIX   =      4    mixing-type and parameters
     AMIX     =   0.40;   BMIX     =  1.00
     AMIX_MAG =   1.60;   BMIX_MAG =  1.00
     AMIN     =   0.10
     WC   =   100.;   INIMIX=   1;  MIXPRE=   1;  MAXMIX= -45

 Intra band minimization:
   WEIMIN = 0.0000     energy-eigenvalue tresh-hold
   EBREAK =  0.24E-06  absolut break condition
   DEPER  =   0.30     relativ break condition  

   TIME   =   0.40     timestep for ELM

  volume/ion in A,a.u.               =      18.88       127.38
  Fermi-wavevector in a.u.,A,eV,Ry     =   1.516371  2.865525 31.284957  2.299380
  Thomas-Fermi vector in A             =   2.625769
 
 Write flags
   LWAVE        =      F    write WAVECAR
   LDOWNSAMPLE  =      F    k-point downsampling of WAVECAR
   LCHARG       =      T    write CHGCAR
   LVTOT        =      F    write LOCPOT, total local potential
   LVHAR        =      T    write LOCPOT, Hartree potential only
   LELF         =      F    write electronic localiz. function (ELF)
   LORBIT       =     11    0 simple, 1 ext, 2 COOP (PROOUT), +10 PAW based schemes


 Dipole corrections
   LMONO  =      F    monopole corrections only (constant potential shift)
   LDIPOL =      F    correct potential (dipole corrections)
   IDIPOL =      0    1-x, 2-y, 3-z, 4-all directions 
   EPSILON=  1.0000000 bulk dielectric constant

 Exchange correlation treatment:
   GGA     =    --    GGA type
   LEXCH   =     8    internal setting for exchange type
   LIBXC   =     F    Libxc                    
   VOSKOWN =     0    Vosko Wilk Nusair interpolation
   LHFCALC =     F    Hartree Fock is set to
   LHFONE  =     F    Hartree Fock one center treatment
   AEXX    =    0.0000 exact exchange contribution

 Linear response parameters
   LEPSILON=     F    determine dielectric tensor
   LRPA    =     F    only Hartree local field effects (RPA)
   LNABLA  =     F    use nabla operator in PAW spheres
   LVEL    =     F    velocity operator in full k-point grid
   CSHIFT  =0.1000    complex shift for real part using Kramers Kronig
   OMEGAMAX=  -1.0    maximum frequency
   DEG_THRESHOLD= 0.2000000E-02 threshold for treating states as degnerate
   RTIME   =   -0.100 relaxation time in fs
  (WPLASMAI=    0.000 imaginary part of plasma frequency in eV, 0.658/RTIME)
   DFIELD  = 0.0000000 0.0000000 0.0000000 field for delta impulse in time
 
  Optional k-point grid parameters
   LKPOINTS_OPT  =     F    use optional k-point grid
   KPOINTS_OPT_MODE=     1    mode for optional k-point grid
 
 Orbital magnetization related:
   ORBITALMAG=     F  switch on orbital magnetization
   LCHIMAG   =     F  perturbation theory with respect to B field
   DQ        =  0.001000  dq finite difference perturbation B field
   LLRAUG    =     F  two centre corrections for induced B field



--------------------------------------------------------------------------------------------------------


 Static calculation
 charge density and potential will be updated during run
 spin polarized calculation
 RMM-DIIS sequential band-by-band and
  variant of blocked Davidson during initial phase
 perform sub-space diagonalisation
    before iterative eigenvector-optimisation
 modified Broyden-mixing scheme, WC =      100.0
 initial mixing is a Kerker type mixing with AMIX =  0.4000 and BMIX =      1.0000
 Hartree-type preconditioning will be used
 using additional bands            14
 real space projection scheme for non local part
 use partial core corrections
 calculate Harris-corrections to forces 
   (improved forces if not selfconsistent)
 use gradient corrections 
 use of overlap-Matrix (Vanderbilt PP)
 Fermi weights with tetrahedron method with Bloechl corrections


--------------------------------------------------------------------------------------------------------


  energy-cutoff  :      520.00
  volume of cell :       94.38
      direct lattice vectors                 reciprocal lattice vectors
    -2.100917000  2.100917000  5.345545000    -0.000000000  0.237991315  0.093535832
     2.100917000 -2.100917000  5.345545000     0.237991315 -0.000000000  0.093535832
     2.100917000  2.100917000 -5.345545000     0.237991315  0.237991315 -0.000000000

  length of vectors
     6.115762898  6.115762898  6.115762898     0.255712374  0.255712374  0.336570546


 
 k-points in units of 2pi/SCALE and weight: Kpoints from vasprun.xml                
   0.03966522  0.03966522  0.01558931       0.037
   0.03966522  0.07933044  0.03117861       0.074
   0.03966522  0.11899566  0.04676792       0.037
   0.03966522  0.00000000  0.00000000       0.019
   0.07933044  0.07933044  0.04676792       0.037
   0.07933044  0.11899566  0.06235722       0.074
   0.07933044 -0.07933044 -0.01558931       0.037
   0.07933044 -0.03966522  0.00000000       0.037
   0.07933044  0.00000000  0.01558931       0.037
   0.11899566  0.11899566  0.07794653       0.019
   0.11899566 -0.07933044  0.00000000       0.037
   0.11899566 -0.03966522  0.01558931       0.074
   0.11899566  0.00000000  0.03117861       0.037
  -0.07933044 -0.07933044 -0.07794653       0.037
  -0.07933044 -0.03966522 -0.06235722       0.074
  -0.07933044  0.00000000 -0.04676792       0.037
  -0.03966522 -0.03966522 -0.04676792       0.037
  -0.03966522  0.00000000 -0.03117861       0.037
   0.00000000  0.00000000 -0.01558931       0.009
   0.11899566  0.11899566  0.04676792       0.009
   0.11899566  0.00000000  0.00000000       0.019
   0.15866088 -0.03966522  0.00000000       0.037
   0.15866088  0.00000000  0.01558931       0.037
  -0.03966522 -0.03966522 -0.07794653       0.037
  -0.03966522  0.00000000 -0.06235722       0.037
   0.00000000  0.00000000 -0.04676792       0.009
   0.19832610  0.00000000  0.00000000       0.019
   0.00000000  0.00000000 -0.07794653       0.009
 
 k-points in reciprocal lattice and weights: Kpoints from vasprun.xml                
   0.08333333  0.08333333  0.08333333       0.037
   0.25000000  0.08333333  0.08333333       0.074
   0.41666667  0.08333333  0.08333333       0.037
  -0.08333333  0.08333333  0.08333333       0.019
   0.25000000  0.25000000  0.08333333       0.037
   0.41666667  0.25000000  0.08333333       0.074
  -0.41666667  0.25000000  0.08333333       0.037
  -0.25000000  0.25000000  0.08333333       0.037
  -0.08333333  0.25000000  0.08333333       0.037
   0.41666667  0.41666667  0.08333333       0.019
  -0.41666667  0.41666667  0.08333333       0.037
  -0.25000000  0.41666667  0.08333333       0.074
  -0.08333333  0.41666667  0.08333333       0.037
  -0.41666667 -0.41666667  0.08333333       0.037
  -0.25000000 -0.41666667  0.08333333       0.074
  -0.08333333 -0.41666667  0.08333333       0.037
  -0.25000000 -0.25000000  0.08333333       0.037
  -0.08333333 -0.25000000  0.08333333       0.037
  -0.08333333 -0.08333333  0.08333333       0.009
   0.25000000  0.25000000  0.25000000       0.009
  -0.25000000  0.25000000  0.25000000       0.019
  -0.41666667  0.41666667  0.25000000       0.037
  -0.25000000  0.41666667  0.25000000       0.037
  -0.41666667 -0.41666667  0.25000000       0.037
  -0.25000000 -0.41666667  0.25000000       0.037
  -0.25000000 -0.25000000  0.25000000       0.009
  -0.41666667  0.41666667  0.41666667       0.019
  -0.41666667 -0.41666667  0.41666667       0.009
 
 position of ions in fractional coordinates (direct lattice) 
   0.00000000  0.00000000  0.00000000
   0.37122100  0.37122100  0.00000000
   0.62877900  0.62877900  0.00000000
   0.75000000  0.25000000  0.50000000
   0.25000000  0.75000000  0.50000000
 
 position of ions in cartesian coordinates  (Angst):
   0.00000000  0.00000000  0.00000000
  -0.00000000  0.00000000  3.96875712
   0.00000000 -0.00000000  6.72233288
   0.00000000  2.10091700  2.67277250
   2.10091700  0.00000000  2.67277250
 


--------------------------------------------------------------------------------------------------------


 k-point   1 :   0.0833 0.0833 0.0833  plane waves:    2542
 k-point   2 :   0.2500 0.0833 0.0833  plane waves:    2547
 k-point   3 :   0.4167 0.0833 0.0833  plane waves:    2556
 k-point   4 :  -0.0833 0.0833 0.0833  plane waves:    2535
 k-point   5 :   0.2500 0.2500 0.0833  plane waves:    2544
 k-point   6 :   0.4167 0.2500 0.0833  plane waves:    2540
 k-point   7 :  -0.4167 0.2500 0.0833  plane waves:    2548
 k-point   8 :  -0.2500 0.2500 0.0833  plane waves:    2553
 k-point   9 :  -0.0833 0.2500 0.0833  plane waves:    2540
 k-point  10 :   0.4167 0.4167 0.0833  plane waves:    2536
 k-point  11 :  -0.4167 0.4167 0.0833  plane waves:    2540
 k-point  12 :  -0.2500 0.4167 0.0833  plane waves:    2542
 k-point  13 :  -0.0833 0.4167 0.0833  plane waves:    2548
 k-point  14 :  -0.4167-0.4167 0.0833  plane waves:    2540
 k-point  15 :  -0.2500-0.4167 0.0833  plane waves:    2537
 k-point  16 :  -0.0833-0.4167 0.0833  plane waves:    2550
 k-point  17 :  -0.2500-0.2500 0.0833  plane waves:    2525
 k-point  18 :  -0.0833-0.2500 0.0833  plane waves:    2538
 k-point  19 :  -0.0833-0.0833 0.0833  plane waves:    2548
 k-point  20 :   0.2500 0.2500 0.2500  plane waves:    2544
 k-point  21 :  -0.2500 0.2500 0.2500  plane waves:    2550
 k-point  22 :  -0.4167 0.4167 0.2500  plane waves:    2536
 k-point  23 :  -0.2500 0.4167 0.2500  plane waves:    2539
 k-point  24 :  -0.4167-0.4167 0.2500  plane waves:    2533
 k-point  25 :  -0.2500-0.4167 0.2500  plane waves:    2536
 k-point  26 :  -0.2500-0.2500 0.2500  plane waves:    2512
 k-point  27 :  -0.4167 0.4167 0.4167  plane waves:    2534
 k-point  28 :  -0.4167-0.4167 0.4167  plane waves:    2536

 maximum and minimum number of plane-waves per node :      2556     2512

 maximum number of plane-waves:      2556
 maximum index in each direction: 
   IXMAX=   11   IYMAX=   11   IZMAX=   11
   IXMIN=  -11   IYMIN=  -11   IZMIN=  -11


 serial   3D FFT for wavefunctions
 parallel 3D FFT for charge:
    minimum data exchange during FFTs selected (reduces bandwidth)


 total amount of memory used by VASP MPI-rank0   140804. kBytes
=======================================================================

   base      :      30000. kBytes
   nonlr-proj:      17592. kBytes
   fftplans  :      33021. kBytes
   grid      :      28717. kBytes
   one-center:        491. kBytes
   wavefun   :      30983. kBytes
 
     INWAV:  cpu time      0.0003: real time      0.0004
 Broyden mixing: mesh for mixing (old mesh)
   NGX = 23   NGY = 23   NGZ = 23
  (NGX  = 96   NGY  = 96   NGZ  = 96)
  gives a total of  12167 points

 initial charge density was supplied:
 charge density of overlapping atoms calculated
 number of electron      75.0000000 magnetization       9.4000000
 keeping initial charge density in first step


--------------------------------------------------------------------------------------------------------


 Maximum index for non-local projection operator         20507
 Maximum index for augmentation-charges        130051 (set IRDMAX)


--------------------------------------------------------------------------------------------------------


 First call to EWALD:  gamma=   0.389
 Maximum number of real-space cells 3x 3x 4
 Maximum number of reciprocal cells 4x 4x 4

    FEWALD:  cpu time      0.0006: real time      0.0006


--------------------------------------- Iteration      1(   1)  ---------------------------------------


    POTLOK:  cpu time      0.1058: real time      0.1508
    SETDIJ:  cpu time      1.5445: real time      1.5451
     EDDAV:  cpu time      4.1619: real time      4.1648
 BZINTS: Fermi energy:   24.001494;   75.000000 electrons
         Band energy: 0.145147E+03;  BLOECHL correction:   -0.686951
       DOS:  cpu time      0.1597: real time      0.1598
    --------------------------------------------
      LOOP:  cpu time      5.9719: real time      6.0204

 eigenvalue-minimisations  :  8128
 total energy-change (2. order) : 0.8664886E+03  (-0.3478491E+04)
 number of electron      75.0000000 magnetization       9.4000000
 augmentation part       75.0000000 magnetization       9.4000000

 Free energy of the ion-electron system (eV)
  ---------------------------------------------------
  alpha Z        PSCENC =       609.06776316
  Ewald energy   TEWEN  =     -8517.05017360
  -Hartree energ DENC   =     -2983.29899639
  -exchange      EXHF   =         0.00000000
  -V(xc)+E(xc)   XCENC  =       357.71358045
  PAW double counting   =      9634.09625160   -10644.40854132
  entropy T*S    EENTRO =         0.00000000
  eigenvalues    EBANDS =       145.14726749
  atomic energy  EATOM  =     12265.22141553
  Solvation  Ediel_sol  =         0.00000000
  ---------------------------------------------------
  free energy    TOTEN  =       866.48856692 eV

  energy without entropy =      866.48856692  energy(sigma->0) =      866.48856692


--------------------------------------------------------------------------------------------------------




--------------------------------------- Iteration      1(   2)  ---------------------------------------


     EDDAV:  cpu time      3.3425: real time      3.3451
 BZINTS: Fermi energy:   11.712971;   75.000000 electrons
         Band energy:-0.609937E+03;  BLOECHL correction:   -0.124719
       DOS:  cpu time      0.1316: real time      0.1316
    --------------------------------------------
      LOOP:  cpu time      3.4741: real time      3.4767

 eigenvalue-minimisations  :  6040
 total energy-change (2. order) :-0.7550841E+03  (-0.6937105E+03)
 number of electron      75.0000000 magnetization       9.4000000
 augmentation part       75.0000000 magnetization       9.4000000

 Free energy of the ion-electron system (eV)
  ---------------------------------------------------
  alpha Z        PSCENC =       609.06776316
  Ewald energy   TEWEN  =     -8517.05017360
  -Hartree energ DENC   =     -2983.29899639
  -exchange      EXHF   =         0.00000000
  -V(xc)+E(xc)   XCENC  =       357.71358045
  PAW double counting   =      9634.09625160   -10644.40854132
  entropy T*S    EENTRO =         0.00000000
  eigenvalues    EBANDS =      -609.93686909
  atomic energy  EATOM  =     12265.22141553
  Solvation  Ediel_sol  =         0.00000000
  ---------------------------------------------------
  free energy    TOTEN  =       111.40443034 eV

  energy without entropy =      111.40443034  energy(sigma->0) =      111.40443034


--------------------------------------------------------------------------------------------------------




--------------------------------------- Iteration      1(   3)  ---------------------------------------


     EDDAV:  cpu time      3.3192: real time      3.3216
 BZINTS: Fermi energy:    9.351827;   75.000000 electrons
         Band energy:-0.751220E+03;  BLOECHL correction:   -0.048709
       DOS:  cpu time      0.1196: real time      0.1197
    --------------------------------------------
      LOOP:  cpu time      3.4388: real time      3.4413

 eigenvalue-minimisations  :  5952
 total energy-change (2. order) :-0.1412830E+03  (-0.1325689E+03)
 number of electron      75.0000000 magnetization       9.4000000
 augmentation part       75.0000000 magnetization       9.4000000

 Free energy of the ion-electron system (eV)
  ---------------------------------------------------
  alpha Z        PSCENC =       609.06776316
  Ewald energy   TEWEN  =     -8517.05017360
  -Hartree energ DENC   =     -2983.29899639
  -exchange      EXHF   =         0.00000000
  -V(xc)+E(xc)   XCENC  =       357.71358045
  PAW double counting   =      9634.09625160   -10644.40854132
  entropy T*S    EENTRO =         0.00000000
  eigenvalues    EBANDS =      -751.21986896
  atomic energy  EATOM  =     12265.22141553
  Solvation  Ediel_sol  =         0.00000000
  ---------------------------------------------------
  free energy    TOTEN  =       -29.87856953 eV

  energy without entropy =      -29.87856953  energy(sigma->0) =      -29.87856953


--------------------------------------------------------------------------------------------------------




--------------------------------------- Iteration      1(   4)  ---------------------------------------


     EDDAV:  cpu time      4.1691: real time      4.1714
 BZINTS: Fermi energy:    9.218081;   75.000000 electrons
         Band energy:-0.761809E+03;  BLOECHL correction:   -0.046878
       DOS:  cpu time      0.1179: real time      0.1179
    --------------------------------------------
      LOOP:  cpu time      4.2869: real time      4.2893

 eigenvalue-minimisations  :  8036
 total energy-change (2. order) :-0.1058963E+02  (-0.1010350E+02)
 number of electron      75.0000000 magnetization       9.4000000
 augmentation part       75.0000000 magnetization       9.4000000

 Free energy of the ion-electron system (eV)
  ---------------------------------------------------
  alpha Z        PSCENC =       609.06776316
  Ewald energy   TEWEN  =     -8517.05017360
  -Hartree energ DENC   =     -2983.29899639
  -exchange      EXHF   =         0.00000000
  -V(xc)+E(xc)   XCENC  =       357.71358045
  PAW double counting   =      9634.09625160   -10644.40854132
  entropy T*S    EENTRO =         0.00000000
  eigenvalues    EBANDS =      -761.80949482
  atomic energy  EATOM  =     12265.22141553
  Solvation  Ediel_sol  =         0.00000000
  ---------------------------------------------------
  free energy    TOTEN  =       -40.46819540 eV

  energy without entropy =      -40.46819540  energy(sigma->0) =      -40.46819540


--------------------------------------------------------------------------------------------------------




--------------------------------------- Iteration      1(   5)  ---------------------------------------


     EDDAV:  cpu time      4.6709: real time      4.6739
 BZINTS: Fermi energy:    9.212249;   75.000000 electrons
         Band energy:-0.762353E+03;  BLOECHL correction:   -0.046704
       DOS:  cpu time      0.1167: real time      0.1167
    CHARGE:  cpu time      0.2256: real time      0.2257
    MIXING:  cpu time      0.0019: real time      0.0019
    --------------------------------------------
      LOOP:  cpu time      5.0151: real time      5.0182

 eigenvalue-minimisations  :  9400
 total energy-change (2. order) :-0.5438861E+00  (-0.5398990E+00)
 number of electron      75.0000002 magnetization       3.1055341
 augmentation part       30.7284263 magnetization       2.2316133

 Broyden mixing:
  rms(total) = 0.43299E+01    rms(broyden)= 0.43299E+01
  rms(prec ) = 0.86345E+01
  weight for this iteration     100.00

 Free energy of the ion-electron system (eV)
  ---------------------------------------------------
  alpha Z        PSCENC =       609.06776316
  Ewald energy   TEWEN  =     -8517.05017360
  -Hartree energ DENC   =     -2983.29899639
  -exchange      EXHF   =         0.00000000
  -V(xc)+E(xc)   XCENC  =       357.71358045
  PAW double counting   =      9634.09625160   -10644.40854132
  entropy T*S    EENTRO =         0.00000000
  eigenvalues    EBANDS =      -762.35338091
  atomic energy  EATOM  =     12265.22141553
  Solvation  Ediel_sol  =         0.00000000
  ---------------------------------------------------
  free energy    TOTEN  =       -41.01208148 eV

  energy without entropy =      -41.01208148  energy(sigma->0) =      -41.01208148


--------------------------------------------------------------------------------------------------------




--------------------------------------- Iteration      1(   6)  ---------------------------------------


    POTLOK:  cpu time      0.0083: real time      0.0092
    SETDIJ:  cpu time      1.5244: real time      1.5250
    EDDIAG:  cpu time      0.2067: real time      0.2069
  RMM-DIIS:  cpu time      2.5700: real time      2.5728
    ORTHCH:  cpu time      0.0802: real time      0.0803
 BZINTS: Fermi energy:    6.509431;   75.000000 electrons
         Band energy:-0.121266E+04;  BLOECHL correction:   -0.142264
       DOS:  cpu time      0.1206: real time      0.1206
    CHARGE:  cpu time      0.2235: real time      0.2237
    MIXING:  cpu time      0.0025: real time      0.0049
    --------------------------------------------
      LOOP:  cpu time      4.7363: real time      4.7434

 eigenvalue-minimisations  :  9601
 total energy-change (2. order) :-0.2764732E+03  (-0.4322791E+02)
 number of electron      75.0000002 magnetization       2.6650688
 augmentation part       37.1555904 magnetization       1.6823909

 Broyden mixing:
  rms(total) = 0.19948E+02    rms(broyden)= 0.19948E+02
  rms(prec ) = 0.29321E+02
  weight for this iteration     100.00

 eigenvalues of (default mixing * dielectric matrix)
  average eigenvalue GAMMA=   0.1004
  0.1004

 Free energy of the ion-electron system (eV)
  ---------------------------------------------------
  alpha Z        PSCENC =       609.06776316
  Ewald energy   TEWEN  =     -8517.05017360
  -Hartree energ DENC   =     -2858.65303829
  -exchange      EXHF   =         0.00000000
  -V(xc)+E(xc)   XCENC  =       348.18700981
  PAW double counting   =     10001.65334512   -10953.25050088
  entropy T*S    EENTRO =         0.00000000
  eigenvalues    EBANDS =     -1212.66105272
  atomic energy  EATOM  =     12265.22141553
  Solvation  Ediel_sol  =         0.00000000
  ---------------------------------------------------
  free energy    TOTEN  =      -317.48523185 eV

  energy without entropy =     -317.48523185  energy(sigma->0) =     -317.48523185


--------------------------------------------------------------------------------------------------------




--------------------------------------- Iteration      1(   7)  ---------------------------------------


    POTLOK:  cpu time      0.0083: real time      0.0089
    SETDIJ:  cpu time      1.5223: real time      1.5229
    EDDIAG:  cpu time      0.2067: real time      0.2068
  RMM-DIIS:  cpu time      2.0929: real time      2.0943
    ORTHCH:  cpu time      0.0798: real time      0.0800
 BZINTS: Fermi energy:    5.145806;   75.000000 electrons
         Band energy:-0.991380E+03;  BLOECHL correction:   -0.069718
       DOS:  cpu time      0.1087: real time      0.1087
    CHARGE:  cpu time      0.2253: real time      0.2254
    MIXING:  cpu time      0.0020: real time      0.0020
    --------------------------------------------
      LOOP:  cpu time      4.2462: real time      4.2490

 eigenvalue-minimisations  :  8104
 total energy-change (2. order) : 0.1968203E+03  (-0.1295072E+02)
 number of electron      75.0000002 magnetization       1.9063316
 augmentation part       39.9020700 magnetization       1.4067001

 Broyden mixing:
  rms(total) = 0.10667E+02    rms(broyden)= 0.10667E+02
  rms(prec ) = 0.17920E+02
  weight for this iteration     100.00

 eigenvalues of (default mixing * dielectric matrix)
  average eigenvalue GAMMA=   0.4107
  0.4107  0.4107

 Free energy of the ion-electron system (eV)
  ---------------------------------------------------
  alpha Z        PSCENC =       609.06776316
  Ewald energy   TEWEN  =     -8517.05017360
  -Hartree energ DENC   =     -2848.38038121
  -exchange      EXHF   =         0.00000000
  -V(xc)+E(xc)   XCENC  =       348.94326137
  PAW double counting   =     10105.08341898   -11092.17043977
  entropy T*S    EENTRO =         0.00000000
  eigenvalues    EBANDS =      -991.37976228
  atomic energy  EATOM  =     12265.22141553
  Solvation  Ediel_sol  =         0.00000000
  ---------------------------------------------------
  free energy    TOTEN  =      -120.66489781 eV

  energy without entropy =     -120.66489781  energy(sigma->0) =     -120.66489781


--------------------------------------------------------------------------------------------------------




--------------------------------------- Iteration      1(   8)  ---------------------------------------


    POTLOK:  cpu time      0.0084: real time      0.0089
    SETDIJ:  cpu time      1.5301: real time      1.5311
    EDDIAG:  cpu time      0.2067: real time      0.2069
  RMM-DIIS:  cpu time      2.5152: real time      2.5166
    ORTHCH:  cpu time      0.0802: real time      0.0802
 BZINTS: Fermi energy:    9.906126;   75.000000 electrons
         Band energy:-0.777082E+03;  BLOECHL correction:   -0.084182
       DOS:  cpu time      0.1126: real time      0.1127
    CHARGE:  cpu time      0.2233: real time      0.2235
    MIXING:  cpu time      0.0023: real time      0.0023
    --------------------------------------------
      LOOP:  cpu time      4.6789: real time      4.6821

 eigenvalue-minimisations  :  9815
 total energy-change (2. order) : 0.7727314E+02  (-0.3766220E+01)
 number of electron      75.0000002 magnetization       0.0320620
 augmentation part       29.5859472 magnetization      -0.5778148

 Broyden mixing:
  rms(total) = 0.47475E+01    rms(broyden)= 0.47474E+01
  rms(prec ) = 0.10475E+02
  weight for this iteration     100.00

 eigenvalues of (default mixing * dielectric matrix)
  average eigenvalue GAMMA=   0.5789
  1.1827  0.2770  0.2770

 Free energy of the ion-electron system (eV)
  ---------------------------------------------------
  alpha Z        PSCENC =       609.06776316
  Ewald energy   TEWEN  =     -8517.05017360
  -Hartree energ DENC   =     -2947.56201424
  -exchange      EXHF   =         0.00000000
  -V(xc)+E(xc)   XCENC  =       353.21854976
  PAW double counting   =     10294.72104148   -11323.92589935
  entropy T*S    EENTRO =         0.00000000
  eigenvalues    EBANDS =      -777.08243707
  atomic energy  EATOM  =     12265.22141553
  Solvation  Ediel_sol  =         0.00000000
  ---------------------------------------------------
  free energy    TOTEN  =       -43.39175433 eV

  energy without entropy =      -43.39175433  energy(sigma->0) =      -43.39175433


--------------------------------------------------------------------------------------------------------




--------------------------------------- Iteration      1(   9)  ---------------------------------------


    POTLOK:  cpu time      0.0081: real time      0.0088
    SETDIJ:  cpu time      1.5618: real time      1.5626
    EDDIAG:  cpu time      0.2069: real time      0.2070
  RMM-DIIS:  cpu time      2.3797: real time      2.3812
    ORTHCH:  cpu time      0.0801: real time      0.0801
 BZINTS: Fermi energy:    7.398726;   75.000000 electrons
         Band energy:-0.795173E+03;  BLOECHL correction:   -0.054252
       DOS:  cpu time      0.1185: real time      0.1186
    CHARGE:  cpu time      0.2223: real time      0.2224
    MIXING:  cpu time      0.0021: real time      0.0021
    --------------------------------------------
      LOOP:  cpu time      4.5795: real time      4.5828

 eigenvalue-minimisations  :  9361
 total energy-change (2. order) : 0.1177267E+02  (-0.7225118E+00)
 number of electron      75.0000002 magnetization      -2.0349596
 augmentation part       33.8732820 magnetization      -1.6411862

 Broyden mixing:
  rms(total) = 0.39696E+01    rms(broyden)= 0.39696E+01
  rms(prec ) = 0.40174E+01
  weight for this iteration     100.00

 eigenvalues of (default mixing * dielectric matrix)
  average eigenvalue GAMMA=   0.4286
  1.1360  0.2773  0.2773  0.0239

 Free energy of the ion-electron system (eV)
  ---------------------------------------------------
  alpha Z        PSCENC =       609.06776316
  Ewald energy   TEWEN  =     -8517.05017360
  -Hartree energ DENC   =     -2915.95815800
  -exchange      EXHF   =         0.00000000
  -V(xc)+E(xc)   XCENC  =       351.53495247
  PAW double counting   =     10650.53925530   -11679.80119223
  entropy T*S    EENTRO =         0.00000000
  eigenvalues    EBANDS =      -795.17294775
  atomic energy  EATOM  =     12265.22141553
  Solvation  Ediel_sol  =         0.00000000
  ---------------------------------------------------
  free energy    TOTEN  =       -31.61908511 eV

  energy without entropy =      -31.61908511  energy(sigma->0) =      -31.61908511


--------------------------------------------------------------------------------------------------------




--------------------------------------- Iteration      1(  10)  ---------------------------------------


    POTLOK:  cpu time      0.0080: real time      0.0092
    SETDIJ:  cpu time      1.5281: real time      1.5290
    EDDIAG:  cpu time      0.2071: real time      0.2072
  RMM-DIIS:  cpu time      2.4712: real time      2.4723
    ORTHCH:  cpu time      0.0798: real time      0.0798
 BZINTS: Fermi energy:    6.605258;   75.000000 electrons
         Band energy:-0.823166E+03;  BLOECHL correction:   -0.093537
       DOS:  cpu time      0.1179: real time      0.1180
    CHARGE:  cpu time      0.2218: real time      0.2219
    MIXING:  cpu time      0.0022: real time      0.0022
    --------------------------------------------
      LOOP:  cpu time      4.6361: real time      4.6397

 eigenvalue-minimisations  :  9698
 total energy-change (2. order) :-0.4223753E+01  (-0.2141117E+00)
 number of electron      75.0000002 magnetization      -2.3904745
 augmentation part       35.3416019 magnetization      -2.0494540

 Broyden mixing:
  rms(total) = 0.32517E+01    rms(broyden)= 0.32517E+01
  rms(prec ) = 0.38503E+01
  weight for this iteration     100.00

 eigenvalues of (default mixing * dielectric matrix)
  average eigenvalue GAMMA=   0.5817
  1.4039  0.2819  0.2819  0.4703  0.4703

 Free energy of the ion-electron system (eV)
  ---------------------------------------------------
  alpha Z        PSCENC =       609.06776316
  Ewald energy   TEWEN  =     -8517.05017360
  -Hartree energ DENC   =     -2894.14062838
  -exchange      EXHF   =         0.00000000
  -V(xc)+E(xc)   XCENC  =       351.20860910
  PAW double counting   =     10793.79065025   -11820.77492713
  entropy T*S    EENTRO =         0.00000000
  eigenvalues    EBANDS =      -823.16554691
  atomic energy  EATOM  =     12265.22141553
  Solvation  Ediel_sol  =         0.00000000
  ---------------------------------------------------
  free energy    TOTEN  =       -35.84283797 eV

  energy without entropy =      -35.84283797  energy(sigma->0) =      -35.84283797


--------------------------------------------------------------------------------------------------------




--------------------------------------- Iteration      1(  11)  ---------------------------------------


    POTLOK:  cpu time      0.0083: real time      0.0088
    SETDIJ:  cpu time      1.5440: real time      1.5445
    EDDIAG:  cpu time      0.2066: real time      0.2067
  RMM-DIIS:  cpu time      2.4387: real time      2.4397
    ORTHCH:  cpu time      0.0803: real time      0.0803
 BZINTS: Fermi energy:    6.071112;   75.000000 electrons
         Band energy:-0.832293E+03;  BLOECHL correction:   -0.079067
       DOS:  cpu time      0.1176: real time      0.1176
    CHARGE:  cpu time      0.2235: real time      0.2237
    MIXING:  cpu time      0.0023: real time      0.0023
    --------------------------------------------
      LOOP:  cpu time      4.6213: real time      4.6236

 eigenvalue-minimisations  :  9607
 total energy-change (2. order) :-0.2161468E+01  (-0.9370057E-01)
 number of electron      75.0000002 magnetization      -1.8182448
 augmentation part       36.4067911 magnetization      -1.6909500

 Broyden mixing:
  rms(total) = 0.27406E+01    rms(broyden)= 0.27406E+01
  rms(prec ) = 0.52524E+01
  weight for this iteration     100.00

 eigenvalues of (default mixing * dielectric matrix)
  average eigenvalue GAMMA=   0.5651
  1.1575  0.6995  0.6995  0.2831  0.2831  0.2680

 Free energy of the ion-electron system (eV)
  ---------------------------------------------------
  alpha Z        PSCENC =       609.06776316
  Ewald energy   TEWEN  =     -8517.05017360
  -Hartree energ DENC   =     -2892.50616030
  -exchange      EXHF   =         0.00000000
  -V(xc)+E(xc)   XCENC  =       351.38159819
  PAW double counting   =     10769.36396597   -11791.18924731
  entropy T*S    EENTRO =         0.00000000
  eigenvalues    EBANDS =      -832.29346715
  atomic energy  EATOM  =     12265.22141553
  Solvation  Ediel_sol  =         0.00000000
  ---------------------------------------------------
  free energy    TOTEN  =       -38.00430552 eV

  energy without entropy =      -38.00430552  energy(sigma->0) =      -38.00430552


--------------------------------------------------------------------------------------------------------




--------------------------------------- Iteration      1(  12)  ---------------------------------------


    POTLOK:  cpu time      0.0085: real time      0.0088
    SETDIJ:  cpu time      1.5243: real time      1.5250
    EDDIAG:  cpu time      0.2069: real time      0.2069
  RMM-DIIS:  cpu time      2.5999: real time      2.6009
    ORTHCH:  cpu time      0.0800: real time      0.0800
 BZINTS: Fermi energy:    6.112052;   75.000000 electrons
         Band energy:-0.827271E+03;  BLOECHL correction:   -0.083382
       DOS:  cpu time      0.1173: real time      0.1173
    CHARGE:  cpu time      0.2228: real time      0.2229
    MIXING:  cpu time      0.0023: real time      0.0023
    --------------------------------------------
      LOOP:  cpu time      4.7621: real time      4.7642

 eigenvalue-minimisations  : 10237
 total energy-change (2. order) : 0.1650534E+01  (-0.3781794E-01)
 number of electron      75.0000002 magnetization      -1.8445031
 augmentation part       36.2705659 magnetization      -1.7151706

 Broyden mixing:
  rms(total) = 0.27950E+01    rms(broyden)= 0.27950E+01
  rms(prec ) = 0.48665E+01
  weight for this iteration     100.00

 eigenvalues of (default mixing * dielectric matrix)
  average eigenvalue GAMMA=   0.4876
  1.1609  0.6974  0.6974  0.2832  0.2832  0.2725  0.0186

 Free energy of the ion-electron system (eV)
  ---------------------------------------------------
  alpha Z        PSCENC =       609.06776316
  Ewald energy   TEWEN  =     -8517.05017360
  -Hartree energ DENC   =     -2895.95195315
  -exchange      EXHF   =         0.00000000
  -V(xc)+E(xc)   XCENC  =       351.25668913
  PAW double counting   =     10723.62168370   -11745.24841995
  entropy T*S    EENTRO =         0.00000000
  eigenvalues    EBANDS =      -827.27077589
  atomic energy  EATOM  =     12265.22141553
  Solvation  Ediel_sol  =         0.00000000
  ---------------------------------------------------
  free energy    TOTEN  =       -36.35377106 eV

  energy without entropy =      -36.35377106  energy(sigma->0) =      -36.35377106


--------------------------------------------------------------------------------------------------------




--------------------------------------- Iteration      1(  13)  ---------------------------------------


    POTLOK:  cpu time      0.0083: real time      0.0090
    SETDIJ:  cpu time      1.5296: real time      1.5304
    EDDIAG:  cpu time      0.2063: real time      0.2064
  RMM-DIIS:  cpu time      2.6075: real time      2.6087
    ORTHCH:  cpu time      0.0799: real time      0.0799
 BZINTS: Fermi energy:    5.977793;   75.000000 electrons
         Band energy:-0.829433E+03;  BLOECHL correction:   -0.080114
       DOS:  cpu time      0.1207: real time      0.1208
    CHARGE:  cpu time      0.2231: real time      0.2232
    MIXING:  cpu time      0.0025: real time      0.0025
    --------------------------------------------
      LOOP:  cpu time      4.7778: real time      4.7808

 eigenvalue-minimisations  : 10209
 total energy-change (2. order) :-0.3079967E+00  (-0.1954653E-01)
 number of electron      75.0000002 magnetization      -2.2152010
 augmentation part       36.5395889 magnetization      -2.0377496

 Broyden mixing:
  rms(total) = 0.29648E+01    rms(broyden)= 0.29648E+01
  rms(prec ) = 0.53902E+01
  weight for this iteration     100.00

 eigenvalues of (default mixing * dielectric matrix)
  average eigenvalue GAMMA=   0.6781
  1.3210  1.3210  0.9264  0.3494  0.2861  0.2861  0.4675  0.4675

 Free energy of the ion-electron system (eV)
  ---------------------------------------------------
  alpha Z        PSCENC =       609.06776316
  Ewald energy   TEWEN  =     -8517.05017360
  -Hartree energ DENC   =     -2892.58946775
  -exchange      EXHF   =         0.00000000
  -V(xc)+E(xc)   XCENC  =       351.07245167
  PAW double counting   =     10727.61677934   -11750.56721348
  entropy T*S    EENTRO =         0.00000000
  eigenvalues    EBANDS =      -829.43332266
  atomic energy  EATOM  =     12265.22141553
  Solvation  Ediel_sol  =         0.00000000
  ---------------------------------------------------
  free energy    TOTEN  =       -36.66176778 eV

  energy without entropy =      -36.66176778  energy(sigma->0) =      -36.66176778


--------------------------------------------------------------------------------------------------------




--------------------------------------- Iteration      1(  14)  ---------------------------------------


    POTLOK:  cpu time      0.0084: real time      0.0092
    SETDIJ:  cpu time      1.5264: real time      1.5269
    EDDIAG:  cpu time      0.2065: real time      0.2066
  RMM-DIIS:  cpu time      2.7470: real time      2.7484
    ORTHCH:  cpu time      0.0798: real time      0.0799
 BZINTS: Fermi energy:    6.587553;   75.000000 electrons
         Band energy:-0.823055E+03;  BLOECHL correction:   -0.091731
       DOS:  cpu time      0.1116: real time      0.1117
    CHARGE:  cpu time      0.2228: real time      0.2230
    MIXING:  cpu time      0.0027: real time      0.0027
    --------------------------------------------
      LOOP:  cpu time      4.9052: real time      4.9084

 eigenvalue-minimisations  : 10690
 total energy-change (2. order) : 0.6600562E+00  (-0.2585074E-01)
 number of electron      75.0000002 magnetization      -4.2264801
 augmentation part       35.3507008 magnetization      -3.9313981

 Broyden mixing:
  rms(total) = 0.23784E+01    rms(broyden)= 0.23784E+01
  rms(prec ) = 0.31056E+01
  weight for this iteration     100.00

 eigenvalues of (default mixing * dielectric matrix)
  average eigenvalue GAMMA=   0.7350
  1.3313  1.3313  1.3199  0.6194  0.6194  0.2872  0.2872  0.4095  0.4095

 Free energy of the ion-electron system (eV)
  ---------------------------------------------------
  alpha Z        PSCENC =       609.06776316
  Ewald energy   TEWEN  =     -8517.05017360
  -Hartree energ DENC   =     -2903.37821184
  -exchange      EXHF   =         0.00000000
  -V(xc)+E(xc)   XCENC  =       351.98741994
  PAW double counting   =     10738.31685612   -11757.11166741
  entropy T*S    EENTRO =         0.00000000
  eigenvalues    EBANDS =      -823.05511351
  atomic energy  EATOM  =     12265.22141553
  Solvation  Ediel_sol  =         0.00000000
  ---------------------------------------------------
  free energy    TOTEN  =       -36.00171159 eV

  energy without entropy =      -36.00171159  energy(sigma->0) =      -36.00171159


--------------------------------------------------------------------------------------------------------




--------------------------------------- Iteration      1(  15)  ---------------------------------------


    POTLOK:  cpu time      0.0083: real time      0.0090
    SETDIJ:  cpu time      1.5345: real time      1.5353
    EDDIAG:  cpu time      0.2070: real time      0.2072
  RMM-DIIS:  cpu time      2.7799: real time      2.7820
    ORTHCH:  cpu time      0.0799: real time      0.0800
 BZINTS: Fermi energy:    6.955683;   75.000000 electrons
         Band energy:-0.827794E+03;  BLOECHL correction:   -0.089168
       DOS:  cpu time      0.1092: real time      0.1093
    CHARGE:  cpu time      0.2248: real time      0.2249
    MIXING:  cpu time      0.0025: real time      0.0025
    --------------------------------------------
      LOOP:  cpu time      4.9462: real time      4.9503

 eigenvalue-minimisations  : 10723
 total energy-change (2. order) :-0.2238570E+01  (-0.4517474E-01)
 number of electron      75.0000002 magnetization      -4.7341128
 augmentation part       34.8585924 magnetization      -4.3469990

 Broyden mixing:
  rms(total) = 0.14672E+01    rms(broyden)= 0.14672E+01
  rms(prec ) = 0.18734E+01
  weight for this iteration     100.00

 eigenvalues of (default mixing * dielectric matrix)
  average eigenvalue GAMMA=   0.7456
  1.6058  1.6058  1.0205  0.7005  0.7005  0.2873  0.2873  0.4457  0.4457  0.3575

 Free energy of the ion-electron system (eV)
  ---------------------------------------------------
  alpha Z        PSCENC =       609.06776316
  Ewald energy   TEWEN  =     -8517.05017360
  -Hartree energ DENC   =     -2905.34484612
  -exchange      EXHF   =         0.00000000
  -V(xc)+E(xc)   XCENC  =       353.65057356
  PAW double counting   =     10804.22142747   -11820.21250800
  entropy T*S    EENTRO =         0.00000000
  eigenvalues    EBANDS =      -827.79393354
  atomic energy  EATOM  =     12265.22141553
  Solvation  Ediel_sol  =         0.00000000
  ---------------------------------------------------
  free energy    TOTEN  =       -38.24028153 eV

  energy without entropy =      -38.24028153  energy(sigma->0) =      -38.24028153


--------------------------------------------------------------------------------------------------------




--------------------------------------- Iteration      1(  16)  ---------------------------------------


    POTLOK:  cpu time      0.0083: real time      0.0091
    SETDIJ:  cpu time      1.5413: real time      1.5421
    EDDIAG:  cpu time      0.2083: real time      0.2085
  RMM-DIIS:  cpu time      2.6962: real time      2.6973
    ORTHCH:  cpu time      0.0801: real time      0.0801
 BZINTS: Fermi energy:    7.047133;   75.000000 electrons
         Band energy:-0.827937E+03;  BLOECHL correction:   -0.097735
       DOS:  cpu time      0.1086: real time      0.1086
    CHARGE:  cpu time      0.2242: real time      0.2244
    MIXING:  cpu time      0.0025: real time      0.0025
    --------------------------------------------
      LOOP:  cpu time      4.8695: real time      4.8726

 eigenvalue-minimisations  : 10577
 total energy-change (2. order) :-0.3284850E+00  (-0.1028365E-01)
 number of electron      75.0000002 magnetization      -5.1257160
 augmentation part       34.7428665 magnetization      -4.6572251

 Broyden mixing:
  rms(total) = 0.12681E+01    rms(broyden)= 0.12681E+01
  rms(prec ) = 0.16015E+01
  weight for this iteration     100.00

 eigenvalues of (default mixing * dielectric matrix)
  average eigenvalue GAMMA=   0.7854
  1.7286  1.7286  0.9052  0.9052  0.8750  0.2872  0.2872  0.5345  0.5345  0.4266
  0.4266

 Free energy of the ion-electron system (eV)
  ---------------------------------------------------
  alpha Z        PSCENC =       609.06776316
  Ewald energy   TEWEN  =     -8517.05017360
  -Hartree energ DENC   =     -2906.12182187
  -exchange      EXHF   =         0.00000000
  -V(xc)+E(xc)   XCENC  =       354.14977647
  PAW double counting   =     10804.59323445   -11820.49232714
  entropy T*S    EENTRO =         0.00000000
  eigenvalues    EBANDS =      -827.93663349
  atomic energy  EATOM  =     12265.22141553
  Solvation  Ediel_sol  =         0.00000000
  ---------------------------------------------------
  free energy    TOTEN  =       -38.56876648 eV

  energy without entropy =      -38.56876648  energy(sigma->0) =      -38.56876648


--------------------------------------------------------------------------------------------------------




--------------------------------------- Iteration      1(  17)  ---------------------------------------


    POTLOK:  cpu time      0.0079: real time      0.0089
    SETDIJ:  cpu time      1.5263: real time      1.5267
    EDDIAG:  cpu time      0.2072: real time      0.2072
  RMM-DIIS:  cpu time      2.5972: real time      2.5986
    ORTHCH:  cpu time      0.0801: real time      0.0801
 BZINTS: Fermi energy:    7.061793;   75.000000 electrons
         Band energy:-0.828035E+03;  BLOECHL correction:   -0.101000
       DOS:  cpu time      0.1106: real time      0.1106
    CHARGE:  cpu time      0.2236: real time      0.2237
    MIXING:  cpu time      0.0026: real time      0.0026
    --------------------------------------------
      LOOP:  cpu time      4.7555: real time      4.7584

 eigenvalue-minimisations  : 10034
 total energy-change (2. order) :-0.1030386E+00  (-0.8004171E-02)
 number of electron      75.0000002 magnetization      -6.3786146
 augmentation part       34.7259263 magnetization      -5.8493811

 Broyden mixing:
  rms(total) = 0.11120E+01    rms(broyden)= 0.11120E+01
  rms(prec ) = 0.14541E+01
  weight for this iteration     100.00

 eigenvalues of (default mixing * dielectric matrix)
  average eigenvalue GAMMA=   0.9033
  2.1811  2.1811  1.1180  1.1180  0.7381  0.7381  0.7648  0.2872  0.2872  0.5066
  0.5066  0.4134

 Free energy of the ion-electron system (eV)
  ---------------------------------------------------
  alpha Z        PSCENC =       609.06776316
  Ewald energy   TEWEN  =     -8517.05017360
  -Hartree energ DENC   =     -2905.93726040
  -exchange      EXHF   =         0.00000000
  -V(xc)+E(xc)   XCENC  =       354.45567668
  PAW double counting   =     10796.00878541   -11812.40326134
  entropy T*S    EENTRO =         0.00000000
  eigenvalues    EBANDS =      -828.03475054
  atomic energy  EATOM  =     12265.22141553
  Solvation  Ediel_sol  =         0.00000000
  ---------------------------------------------------
  free energy    TOTEN  =       -38.67180509 eV

[...]
  352                map_gather                            0.000246                   12   7
  353                m_alltoallv_z                         0.000141                   12   7
  354                map_scatter                           0.000479                   12   7
  355        m_sumb_d                              0.000030                            5   3
  356        forhar                                0.001949                            2   3
  357          m_sumb_d                              0.000007                          2   4
  358        strehar                               0.001268                            1   3
  359          m_sumb_d                              0.000013                          1   4
  360        chggra                                0.000766                            1   3
  361          fft3d_mpi                             0.000458                          3   4
  362            fftbrc_mpi                            0.000359                        3   5
  363              fftbas_plan_mpi                       0.000358                      3   6
  364                map_forward                           0.000186                    4   7
  365                  map_gather                            0.000043                  2   8
  366                  m_alltoallv_z                         0.000027                  2   8
  367                  map_scatter                           0.000089                  2   8
  368                map_backward                          0.000088                    2   7
  369                  map_gather                            0.000021                  1   8
  370                  m_alltoallv_z                         0.000012                  1   8
  371                  map_scatter                           0.000041                  1   8
  372          m_sumb_d                              0.000010                          2   4
  373          pothar                                0.000074                          1   4
  374            m_sumb_d                              0.000005                        1   5
  375        brmix                                 0.006713                            1   3
  376          m_sumb_d                              0.000041                          6   4
  377          brpre                                 0.000022                          2   4
  378          setg0                                 0.000777                          1   4
  379          broyd                                 0.004998                          1   4
  380            m_sumb_d                              0.000818                       49   5
  381            brget                                 0.000814                      219   5
  382            brsav                                 0.000185                       47   5
  383        m_bcast_d                             0.000020                            2   3
  384      potlok                                0.027432                              2   2
  385        fft3d_mpi                             0.018699                           36   3
  386          fftbrc_mpi                            0.016029                         36   4
  387            fftbas_plan_mpi                       0.016011                       36   5
  388              map_forward                           0.004582                     40   6
  389                map_gather                            0.001541                   24   7
  390                m_alltoallv_z                         0.001493                   24   7
  391                map_scatter                           0.001360                   24   7
  392              map_backward                          0.003879                     32   6
  393                map_gather                            0.001274                   16   7
  394                m_alltoallv_z                         0.001280                   16   7
  395                map_scatter                           0.001131                   16   7
  396              dfftw_execute                         0.005623                     30   6
  397        m_sumb_d                              0.000026                            5   3
  398        pothar                                0.001108                            2   3
  399          m_sumb_d                              0.000077                          2   4
  400        m_bcast_d                             0.001808                            4   3
  401      potlok_metagga                        0.000000                              1   2
  402      set_dd_magatom                        0.000004                              1   2
  403      set_dd_paw                            1.409805                              1   2
  404        m_sumb_d                              0.935362                            7   3
  405      augmentation_charge                   0.127963                              1   2
  406        fft3d_mpi                             0.032784                            2   3
  407          fftbrc_mpi                            0.028052                          2   4
  408            fftbas_plan_mpi                       0.028050                        2   5
  409              dfftw_execute                         0.018932                      6   6
  410              map_backward                          0.008864                      4   6
  411                map_gather                            0.002442                    2   7
  412                m_alltoallv_z                         0.004032                    2   7
  413                map_scatter                           0.002382                    2   7
  414      densta                                3.084409                              1   2
 
 Flat profile
 ============
 
             routine name                   CPU           calls
 ---------------------------------------------------------------
 m_sumb_d                               80.200218       33948
 raccmu_                                38.020176       41284
 set_dd_paw                             30.622285          65
 eccp                                   16.459704      209283
 phaser                                 13.882968        4116
 init_acc                               11.906955           1
 densta                                 10.658859          68
 total_time                             10.139818           1
 w1_gemv                                 9.828694      423868
 i2                                      9.182004       34214
 eccp_nl                                 8.763752      160507
 setdij_                                 8.200573          91
 augmentation_charge                     6.090590          64
 eddrmm                                  5.463243          62
 eddiag                                  5.078263          62
 redis_pw                                4.981245       60423
 cnorma                                  4.200009      160507
 dfftw_execute                           3.687204        1932
 m_alltoall_d                            3.635884      594979
 overl1                                  3.482408      211934
 eddav                                   3.198538           5
 fft3d                                   3.161176      450313
 lapack                                  2.974146        7070
 fftwav                                  2.718267      274053
 acc_init_cublas                         2.441497           1
 soft_charge                             2.403423          63
 w1_copy                                 2.054449      393372
 w1_dscal                                2.011292      335610
 hamilt_local                            1.904889       45136
 rpromu_acc                              1.842071       42236
 apply_precond                           1.733430      381138
 setup_precond                           1.700696       48776
 w1_gaxpy                                1.691117      327975
 racc0mu_acc                             1.363949       41284
 newband                                 1.348475       45036
 w1_daxpy                                1.282481      233466
 w1_dot                                  1.226127       43774
 redis_proj                              1.020402       66396
 hamiltmu                                1.018842       41284
 m_alltoallv_z                           0.982961        2589
 pw_charge                               0.972851       35166
 acc_init_cusolver                       0.789687           1
 kinhamil                                0.759074      176260
 vhamil                                  0.751544      176260
 depsum                                  0.729294          63
 fftext_mpi                              0.702124      176260
 fft3d_mpi                               0.661101      178593
 zhegv                                   0.622826       72959
 overl_mu                                0.620952       41284
 map_scatter                             0.581429        2589
 rpro_isp                                0.552821         364
 set_charge                              0.517420          63
 orthch                                  0.516478          63
 map_gather                              0.489061        2589
 choleski                                0.459082        3528
 orth1                                   0.407469       35210
 fftwav_mpi                              0.369276      274053
 i3                                      0.305377       34214
 overl                                   0.255447       29418
 potlok                                  0.234178          65
 rspher_all                              0.224764          14
 m_bcast_z                               0.222870        9982
 fftbas_plan_mpi                         0.145402        2333
 lincom                                  0.138196        7280
 elmin                                   0.128337           1
 acc_cufft_makeplan                      0.124394          19
 m_bcast_d                               0.116819       14275
 broyd                                   0.108736          63
 ggemm                                   0.092089        9030
 brmix                                   0.059931          63
 sphpro_fast                             0.052830           2
 setg0                                   0.050718          65
 proall                                  0.047734           1
 i1                                      0.036149       34214
 brget                                   0.034234        9744
 w1_projall                              0.034178       39324
 map_backward                            0.013664        2454
 truncate_high_frequency_w1              0.013320      179900
 map_forward                             0.012505        2212
 force_and_stress                        0.009833           1
 brsav                                   0.008914        2538
 strnlr                                  0.007689           1
 pothar                                  0.005874          66
 inisym                                  0.004324           1
 fft_gq                                  0.003471          63
 stufak                                  0.003049           1
 fornlr                                  0.002613           1
 forhar                                  0.001942           2
 strelo                                  0.001692           1
 brpre                                   0.001528         126
 fftbrc_mpi                              0.001369        2333
 strehar                                 0.001255           1
 forloc                                  0.001027           1
 shift_bands_between_low_high            0.000452        3472
 fewald                                  0.000352           1
 strkin                                  0.000344           1
 set_dd_magatom                          0.000284          65
 vectorpot                               0.000267          64
 chggra                                  0.000224           1
 brgrid                                  0.000166           1
 rsp                                     0.000092           1
 fordep                                  0.000049           1
 crpa_reader                             0.000025           1
 posmap                                  0.000023           2
 rcp                                     0.000012           1
 acc_cufft_makeplans                     0.000010           3
 potlok_metagga                          0.000007          64
 rotate_active_occupied_orbital          0.000000           1
 redis_pw_over_bands                     0.000000           1
 ---------------------------------------------------------------
  summed up times     335.5743269920349     
 
 Accumulative profile
 ====================
 
             routine name                   CPU           calls
 ---------------------------------------------------------------
 total_time                            335.574327           1
 elmin                                 296.659269           1
 eddrmm                                139.919301          62
 set_dd_paw                             91.287367          65
 m_sumb_d                               80.200218       33948
 hamiltmu                               43.619520       41284
 raccmu_                                40.005076       41284
 i2                                     30.864143       34214
 i3                                     28.804626       34214
 eddav                                  19.670445           5
 eccp                                   16.459704      209283
 set_charge                             14.082504          63
 phaser                                 13.882968        4116
 w1_gemv                                13.311102      423868
 cnorma                                 12.963761      160507
 eddiag                                 12.830976          62
 setdij_                                11.985182          91
 init_acc                               11.906955           1
 densta                                 10.658859          68
 eccp_nl                                 8.763752      160507
 newband                                 8.395248       45036
 augmentation_charge                     8.196676          64
 force_and_stress                        7.773950           1
 fft3d_mpi                               7.743881      178593
 redis_pw                                6.601340       60423
 fftbrc_mpi                              5.913595        2333
 fftbas_plan_mpi                         5.912226        2333
 orthch                                  5.221727          63
 fftwav_mpi                              5.079534      274053
 fftwav                                  4.710258      274053
 soft_charge                             4.684294          63
 dfftw_execute                           3.687204        1932
 m_alltoall_d                            3.635884      594979
 overl1                                  3.482408      211934
 fft3d                                   3.161176      450313
 redis_proj                              3.036192       66396
 lapack                                  2.974146        7070
 hamilt_local                            2.742445       45136
 kinhamil                                2.681614      176260
 acc_init_cublas                         2.441497           1
 w1_copy                                 2.054449      393372
 strnlr                                  2.038853           1
 w1_dscal                                2.011292      335610
 fftext_mpi                              1.922540      176260
 rpromu_acc                              1.842071       42236
 apply_precond                           1.733430      381138
 setup_precond                           1.700696       48776
 w1_gaxpy                                1.691117      327975
 rpro_isp                                1.396698         364
 racc0mu_acc                             1.363949       41284
 w1_projall                              1.314480       39324
 w1_daxpy                                1.282481      233466
 w1_dot                                  1.226127       43774
 map_forward                             1.140538        2212
 m_alltoallv_z                           0.982961        2589
 pw_charge                               0.972851       35166
 map_backward                            0.939082        2454
 acc_init_cusolver                       0.789687           1
 fordep                                  0.788779           1
 vhamil                                  0.751544      176260
 depsum                                  0.738175          63
 fornlr                                  0.679086           1
 potlok                                  0.660670          65
 zhegv                                   0.622826       72959
 overl_mu                                0.620952       41284
 map_scatter                             0.581429        2589
 i1                                      0.562262       34214
 map_gather                              0.489061        2589
 choleski                                0.459082        3528
 orth1                                   0.407469       35210
 brmix                                   0.294781          63
 overl                                   0.255447       29418
 rspher_all                              0.224764          14
 m_bcast_z                               0.222870        9982
 proall                                  0.186495           1
 broyd                                   0.178797          63
 lincom                                  0.138196        7280
 acc_cufft_makeplans                     0.124404           3
 acc_cufft_makeplan                      0.124394          19
 m_bcast_d                               0.116819       14275
 fft_gq                                  0.109700          63
 ggemm                                   0.092089        9030
 sphpro_fast                             0.054191           2
 setg0                                   0.050718          65
 brget                                   0.034234        9744
 truncate_high_frequency_w1              0.013320      179900
 brsav                                   0.008914        2538
 pothar                                  0.006451          66
 inisym                                  0.004347           1
 stufak                                  0.003049           1
 forhar                                  0.001949           2
 strelo                                  0.001713           1
 brpre                                   0.001528         126
 strehar                                 0.001268           1
 forloc                                  0.001042           1
 chggra                                  0.000766           1
 fewald                                  0.000550           1
 shift_bands_between_low_high            0.000452        3472
 strkin                                  0.000361           1
 set_dd_magatom                          0.000284          65
 vectorpot                               0.000267          64
 brgrid                                  0.000166           1
 rsp                                     0.000092           1
 crpa_reader                             0.000025           1
 posmap                                  0.000023           2
 rcp                                     0.000012           1
 potlok_metagga                          0.000007          64
 rotate_active_occupied_orbital          0.000000           1
 redis_pw_over_bands                     0.000000           1
 ---------------------------------------------------------------
 
Profiling took   0.656399  0.466935  0.003559  0.003471 seconds
Profiling took   0.532965 seconds
