 vasp.6.3.2 27Jun22 (build Jul  3 2023 11:46:21) complex                         
 executed on    LinuxNV_CrayMPICH date 2024.04.22  03:28:49
 running on    4 total cores
 distrk:  each k-point on    4 cores,    1 groups
 distr:  one band on NCORE=   1 cores,    4 groups


--------------------------------------------------------------------------------------------------------


 INCAR:
   ADDGRID = True
   ALGO = All
   EDIFF = 0.0001
   ENCUT = 520.0
   IBRION = -1
   ISIF = 3
   ISMEAR = -5
   ISPIN = 2
   LAECHG = True
   LASPH = True
   LCHARG = True
   LORBIT = 11
   LREAL = Auto
   LVHAR = True
   LWAVE = False
   MAGMOM = 1*7.0 5*0.6
   NELM = 1000
   NSW = 0
   PREC = Accurate
   SIGMA = 0.05

 POTCAR:    PAW_PBE Gd 23Dec2003                  
 POTCAR:    PAW_PBE Cu_pv 06Sep2000               
 POTCAR:    PAW_PBE Pd 04Jan2005                  
 POTCAR:    PAW_PBE Gd 23Dec2003                  
   SHA256 =  58854b40b4643190560b0e2b62d2ab46bea96585f82c6231a0f4f44b8c3188dc Gd/POTCAR             
   COPYR  = (c) Copyright 23Dec2003 Georg Kresse                                                    
   COPYR  = This file is part of the software VASP. Any use, copying, and all other rights are regul
   COPYR  = If you do not have a valid VASP license, you may not use, copy or distribute this file. 
   VRHFIN =Gd : [core=Xe4]                                                                          
   LEXCH  = PE                                                                                      
   EATOM  =  3047.6032 eV,  223.9925 Ry                                                             
                                                                                                    
   TITEL  = PAW_PBE Gd 23Dec2003                                                                    
   LULTRA =        F    use ultrasoft PP ?                                                          
   IUNSCR =        1    unscreen: 0-lin 1-nonlin 2-no                                               
   RPACOR =    2.300    partial core radius                                                         
   POMASS =  157.250; ZVAL   =   18.000    mass and valenz                                          
   RCORE  =    2.800    outmost cutoff radius                                                       
   RWIGS  =    2.800; RWIGS  =    1.482    wigner-seitz radius (au A)                               
   ENMAX  =  256.472; ENMIN  =  192.354 eV                                                          
   RCLOC  =    2.316    cutoff for local pot                                                        
   LCOR   =        T    correct aug charges                                                         
   LPAW   =        T    paw PP                                                                      
   EAUG   =  537.243                                                                                
   DEXC   =    0.000                                                                                
   RMAX   =    2.857    core radius for proj-oper                                                   
   RAUG   =    1.300    factor for augmentation sphere                                              
   RDEP   =    2.921    radius for radial grids                                                     
   RDEPT  =    2.247    core radius for aug-charge                                                  
                                                                                                    
   Atomic configuration                                                                             
   14 entries                                                                                       
     n  l   j            E        occ.                                                              
     1  0  0.50    -50087.2354   2.0000                                                             
     2  0  0.50     -8269.2182   2.0000                                                             
     2  1  1.50     -7357.3672   6.0000                                                             
     3  0  0.50     -1833.2681   2.0000                                                             
     3  1  1.50     -1550.9376   6.0000                                                             
     3  2  2.50     -1178.7204  10.0000                                                             
     4  0  0.50      -369.2978   2.0000                                                             
     4  1  1.50      -276.2601   6.0000                                                             
     4  2  2.50      -147.6611  10.0000                                                             
     5  0  0.50       -49.7260   2.0000                                                             
     6  0  0.50        -4.1254   2.0000                                                             
     5  1  1.50       -27.2538   6.0000                                                             
     5  2  2.50        -2.5337   1.0000                                                             
     4  3  2.50        -8.7140   7.0000                                                             
   Description                                                                                      
     l       E           TYP  RCUT    TYP  RCUT                                                     
     0    -49.7259557     23  2.400                                                                 
     0     -4.1254107     23  2.400                                                                 
     1    -27.2537518     23  2.400                                                                 
     1     20.4087390     23  2.400                                                                 
     2     -2.5337329     23  2.500                                                                 
     2     13.6058260     23  2.500                                                                 
     3     -8.7140389     23  2.800                                                                 
     3     -9.5240782     23  2.800                                                                 
  local pseudopotential read in
  partial core-charges read in
  partial kinetic energy density read in
  atomic valenz-charges read in
  non local Contribution for L=            0  read in
    real space projection operators read in
  non local Contribution for L=            0  read in
    real space projection operators read in
  non local Contribution for L=            1  read in
    real space projection operators read in
  non local Contribution for L=            1  read in
    real space projection operators read in
  non local Contribution for L=            2  read in
    real space projection operators read in
  non local Contribution for L=            2  read in
    real space projection operators read in
  non local Contribution for L=            3  read in
    real space projection operators read in
  non local Contribution for L=            3  read in
    real space projection operators read in
    PAW grid and wavefunctions read in
 
   number of l-projection  operators is LMAX  =            8
   number of lm-projection operators is LMMAX =           32
 
 POTCAR:    PAW_PBE Cu_pv 06Sep2000               
   SHA256 =  cb7b504e2ea725fe1f25c85a9ac77d4012ce94cd394135b722c4e25ec297f1cb Cu_pv/POTCAR          
   COPYR  = (c) Copyright 06Sep2000 Georg Kresse                                                    
   COPYR  = This file is part of the software VASP. Any use, copying, and all other rights are regul
   COPYR  = If you do not have a valid VASP license, you may not use, copy or distribute this file. 
   VRHFIN =Cu: d10 p1                                                                               
   LEXCH  = PE                                                                                      
   EATOM  =  4120.1201 eV,  302.8203 Ry                                                             
                                                                                                    
   TITEL  = PAW_PBE Cu_pv 06Sep2000                                                                 
   LULTRA =        F    use ultrasoft PP ?                                                          
   IUNSCR =        1    unscreen: 0-lin 1-nonlin 2-no                                               
   RPACOR =    1.500    partial core radius                                                         
   POMASS =   63.546; ZVAL   =   17.000    mass and valenz                                          
   RCORE  =    2.000    outmost cutoff radius                                                       
   RWIGS  =    2.000; RWIGS  =    1.058    wigner-seitz radius (au A)                               
   ENMAX  =  368.648; ENMIN  =  276.486 eV                                                          
   RCLOC  =    1.304    cutoff for local pot                                                        
   LCOR   =        T    correct aug charges                                                         
   LPAW   =        T    paw PP                                                                      
   EAUG   =  758.233                                                                                
   DEXC   =    0.000                                                                                
   RMAX   =    2.046    core radius for proj-oper                                                   
   RAUG   =    1.300    factor for augmentation sphere                                              
   RDEP   =    2.025    radius for radial grids                                                     
   RDEPT  =    1.558    core radius for aug-charge                                                  
                                                                                                    
   Atomic configuration                                                                             
    8 entries                                                                                       
     n  l   j            E        occ.                                                              
     1  0  0.50     -8850.2467   2.0000                                                             
     2  0  0.50     -1062.3498   2.0000                                                             
     2  1  1.50      -916.8226   6.0000                                                             
     3  0  0.50      -114.6929   2.0000                                                             
     3  1  1.50       -72.1325   6.0000                                                             
     3  2  2.50        -5.0394  10.0000                                                             
     4  0  0.50        -4.6097   1.0000                                                             
     4  3  2.50        -1.3606   0.0000                                                             
   Description                                                                                      
     l       E           TYP  RCUT    TYP  RCUT                                                     
     1    -72.1324777     23  1.700                                                                 
     1     -1.3605826     23  1.700                                                                 
     2     -5.0393776     23  2.000                                                                 
     2     -6.3999602     23  2.000                                                                 
     0     -4.6097062     23  1.800                                                                 
     0     14.1620818     23  1.800                                                                 
  local pseudopotential read in
  partial core-charges read in
  partial kinetic energy density read in
  atomic valenz-charges read in
  non local Contribution for L=            1  read in
    real space projection operators read in
  non local Contribution for L=            1  read in
    real space projection operators read in
  non local Contribution for L=            2  read in
    real space projection operators read in
  non local Contribution for L=            2  read in
    real space projection operators read in
  non local Contribution for L=            0  read in
    real space projection operators read in
  non local Contribution for L=            0  read in
    real space projection operators read in
    PAW grid and wavefunctions read in
 
   number of l-projection  operators is LMAX  =            6
   number of lm-projection operators is LMMAX =           18
 
 POTCAR:    PAW_PBE Pd 04Jan2005                  
   SHA256 =  dd6f6f02930356371984e2b707ff5e456046761dc76b07c1eba30abd15eb3c39 Pd/POTCAR             
   COPYR  = (c) Copyright 04Jan2005 Georg Kresse                                                    
   COPYR  = This file is part of the software VASP. Any use, copying, and all other rights are regul
   COPYR  = If you do not have a valid VASP license, you may not use, copy or distribute this file. 
   VRHFIN =Pd : s1 d9                                                                               
   LEXCH  = PE                                                                                      
   EATOM  =   809.7530 eV,   59.5152 Ry                                                             
                                                                                                    
   TITEL  = PAW_PBE Pd 04Jan2005                                                                    
   LULTRA =        F    use ultrasoft PP ?                                                          
   IUNSCR =        1    unscreen: 0-lin 1-nonlin 2-no                                               
   RPACOR =    2.000    partial core radius                                                         
   POMASS =  106.420; ZVAL   =   10.000    mass and valenz                                          
   RCORE  =    2.600    outmost cutoff radius                                                       
   RWIGS  =    2.710; RWIGS  =    1.434    wigner-seitz radius (au A)                               
   ENMAX  =  250.925; ENMIN  =  188.194 eV                                                          
   ICORE  =        3    local potential                                                             
   LCOR   =        T    correct aug charges                                                         
   LPAW   =        T    paw PP                                                                      
   EAUG   =  416.230                                                                                
   DEXC   =    0.000                                                                                
   RMAX   =    2.653    core radius for proj-oper                                                   
   RAUG   =    1.300    factor for augmentation sphere                                              
   RDEP   =    2.734    radius for radial grids                                                     
   RDEPT  =    2.103    core radius for aug-charge                                                  
                                                                                                    
   Atomic configuration                                                                             
   12 entries                                                                                       
     n  l   j            E        occ.                                                              
     1  0  0.50    -24164.6631   2.0000                                                             
     2  0  0.50     -3530.9218   2.0000                                                             
     2  1  1.50     -3165.6822   6.0000                                                             
     3  0  0.50      -639.4577   2.0000                                                             
     3  1  1.50      -519.4532   6.0000                                                             
     3  2  2.50      -328.9757  10.0000                                                             
     4  0  0.50       -88.7014   2.0000                                                             
     4  1  1.50       -54.4540   6.0000                                                             
     4  2  2.50        -6.6878   9.0000                                                             
     5  0  0.50        -4.3543   1.0000                                                             
     5  1  0.50        -1.3606   0.0000                                                             
     4  3  2.50        -1.3606   0.0000                                                             
   Description                                                                                      
     l       E           TYP  RCUT    TYP  RCUT                                                     
     2     -6.6878251     23  2.400                                                                 
     2     -8.0484077     23  2.400                                                                 
     0     -4.3542939     23  2.400                                                                 
     0      4.3406793     23  2.400                                                                 
     1     -4.0817478     23  2.600                                                                 
     1     15.8380318     23  2.600                                                                 
     3     -4.0817478     23  2.400                                                                 
  local pseudopotential read in
  partial core-charges read in
  partial kinetic energy density read in
  atomic valenz-charges read in
  non local Contribution for L=            2  read in
    real space projection operators read in
  non local Contribution for L=            2  read in
    real space projection operators read in
  non local Contribution for L=            0  read in
    real space projection operators read in
  non local Contribution for L=            0  read in
    real space projection operators read in
  non local Contribution for L=            1  read in
    real space projection operators read in
  non local Contribution for L=            1  read in
    real space projection operators read in
    PAW grid and wavefunctions read in
 
   number of l-projection  operators is LMAX  =            6
   number of lm-projection operators is LMMAX =           18
 
 -----------------------------------------------------------------------------
|                                                                             |
|               ----> ADVICE to this user running VASP <----                  |
|                                                                             |
|     You have a (more or less) 'small supercell' and for smaller cells       |
|     it is recommended to use the reciprocal-space projection scheme!        |
|     The real-space optimization is not efficient for small cells and it     |
|     is also less accurate ...                                               |
|     Therefore, set LREAL=.FALSE. in the INCAR file.                         |
|                                                                             |
 -----------------------------------------------------------------------------

 Optimization of the real space projectors (new method)

 maximal supplied QI-value         = 13.42
 optimisation between [QCUT,QGAM] = [ 11.67, 23.35] = [ 38.16,152.62] Ry 
 Optimized for a Real-space Cutoff    1.63 Angstroem

   l    n(q)    QCUT    max X(q) W(low)/X(q) W(high)/X(q)  e(spline) 
   0     11    11.673    10.501    0.14E-04    0.17E-05    0.21E-07
   0     11    11.673     9.148    0.21E-04    0.32E-05    0.45E-07
   1     11    11.673     4.035    0.33E-05    0.11E-04    0.84E-07
   1     11    11.673     4.388    0.11E-04    0.47E-04    0.34E-06
   2     10    11.673    20.656    0.12E-04    0.28E-04    0.54E-06
   2     10    11.673    12.651    0.11E-04    0.26E-04    0.51E-06
   3     10    11.673    61.921    0.19E-03    0.22E-03    0.23E-06
   3     10    11.673    48.328    0.20E-03    0.23E-03    0.23E-06
 Optimization of the real space projectors (new method)

 maximal supplied QI-value         = 18.90
 optimisation between [QCUT,QGAM] = [ 11.53, 23.24] = [ 37.21,151.29] Ry 
 Optimized for a Real-space Cutoff    1.36 Angstroem

   l    n(q)    QCUT    max X(q) W(low)/X(q) W(high)/X(q)  e(spline) 
   1      9    11.527     3.172    0.21E-04    0.38E-04    0.11E-06
   1      9    11.527     4.083    0.67E-04    0.79E-04    0.20E-06
   2      9    11.527    65.342    0.13E-03    0.28E-03    0.26E-06
   2      9    11.527    61.381    0.13E-03    0.29E-03    0.26E-06
   0      9    11.527    65.742    0.32E-04    0.21E-04    0.72E-07
   0      9    11.527    30.431    0.28E-04    0.19E-04    0.65E-07
 Optimization of the real space projectors (new method)

 maximal supplied QI-value         = 14.36
 optimisation between [QCUT,QGAM] = [ 11.63, 23.27] = [ 37.90,151.59] Ry 
 Optimized for a Real-space Cutoff    1.49 Angstroem

   l    n(q)    QCUT    max X(q) W(low)/X(q) W(high)/X(q)  e(spline) 
   2      9    11.633    59.108    0.81E-04    0.17E-04    0.26E-06
   2      9    11.633    58.101    0.82E-04    0.18E-04    0.27E-06
   0     10    11.633   102.235    0.26E-04    0.16E-04    0.21E-06
   0     10    11.633    58.388    0.23E-04    0.15E-04    0.20E-06
   1     10    11.633    22.191    0.10E-03    0.20E-03    0.14E-06
   1     10    11.633    15.590    0.86E-04    0.17E-03    0.12E-06
  PAW_PBE Gd 23Dec2003                  :
 energy of atom  1       EATOM=-3047.6032
 kinetic energy error for atom=    0.0019 (will be added to EATOM!!)
  PAW_PBE Cu_pv 06Sep2000               :
 energy of atom  2       EATOM=-4120.1201
 kinetic energy error for atom=    0.0541 (will be added to EATOM!!)
  PAW_PBE Pd 04Jan2005                  :
 energy of atom  3       EATOM= -809.7530
 kinetic energy error for atom=    0.0045 (will be added to EATOM!!)
 
 
 POSCAR: Gd1 Cu4 Pd1
  positions in direct lattice
  No initial velocities read in
 exchange correlation table for  LEXCH =        8
   RHO(1)=    0.500       N(1)  =     2000
   RHO(2)=  100.500       N(2)  =     4000

 VTST: version 4.2, (08/11/21)

 CHAIN: initializing optimizer
 
 OPT: Using VASP Dynamics algorithm
 CHAIN: Read ICHAIN             0
 
 POSCAR: Gd1 Cu4 Pd1
  positions in direct lattice
  No initial velocities read in
 


--------------------------------------------------------------------------------------------------------


 ion  position               nearest neighbor table
   1  0.999  0.999  0.999-   6 2.95   6 2.95   6 2.95   2 2.99   3 2.99   3 2.99   2 2.99   4 2.99
                             4 2.99   4 3.02   3 3.02   2 3.02
   2  0.626  0.127  0.626-   4 2.50   3 2.50   4 2.52   3 2.52   6 2.56   6 2.60   1 2.99   1 2.99
                             1 3.02
   3  0.127  0.626  0.626-   4 2.50   2 2.50   4 2.52   2 2.52   6 2.56   6 2.60   1 2.99   1 2.99
                             1 3.02
   4  0.626  0.626  0.127-   2 2.50   3 2.50   3 2.52   2 2.52   6 2.56   6 2.60   1 2.99   1 2.99
                             1 3.02
   5  0.247  0.247  0.247-   6 2.95   6 2.95   6 2.95
   6  0.625  0.625  0.625-   4 2.56   2 2.56   3 2.56   4 2.60   3 2.60   2 2.60   1 2.95   1 2.95
                             1 2.95   5 2.95   5 2.95   5 2.95
 
  LATTYP: Found a trigonal (rhomboedric) cell.
 ALAT       =     5.1636928780
 COS(alpha) =     0.5275627236
  
  Lattice vectors:
  
 A1 = (   4.5127880000,  -2.5096750000,   0.0000000000)
 A2 = (   4.5127880000,   2.5096750000,   0.0000000000)
 A3 = (   3.1170950000,   0.0000000000,   4.1167270000)


Analysis of symmetry for initial positions (statically):
=====================================================================
 Subroutine PRICEL returns:
 Original cell was already a primitive cell.
 

 Routine SETGRP: Setting up the symmetry group for a 
 trigonal (rhombohedral) supercell.


 Subroutine GETGRP returns: Found  6 space group operations
 (whereof  6 operations were pure point group operations)
 out of a pool of 12 trial point group operations.


The static configuration has the point symmetry C_3v.


Analysis of symmetry for dynamics (positions and initial velocities):
=====================================================================
 Subroutine PRICEL returns:
 Original cell was already a primitive cell.
 

 Routine SETGRP: Setting up the symmetry group for a 
 trigonal (rhombohedral) supercell.


 Subroutine GETGRP returns: Found  6 space group operations
 (whereof  6 operations were pure point group operations)
 out of a pool of 12 trial point group operations.


The dynamic configuration has the point symmetry C_3v.


Analysis of structural, dynamic, and magnetic symmetry:
=====================================================================
 Subroutine PRICEL returns:
 Original cell was already a primitive cell.
 

 Routine SETGRP: Setting up the symmetry group for a 
 trigonal (rhombohedral) supercell.


 Subroutine GETGRP returns: Found  6 space group operations
 (whereof  6 operations were pure point group operations)
 out of a pool of 12 trial point group operations.


The overall configuration has the point symmetry C_3v.


 Subroutine INISYM returns: Found  6 space group operations
 (whereof  6 operations are pure point group operations),
 and found     1 'primitive' translations


----------------------------------------------------------------------------------------

                                     Primitive cell                                     

  volume of cell :      93.2491

  direct lattice vectors                    reciprocal lattice vectors
     4.512788000 -2.509675000  0.000000000     0.110796253 -0.199228984 -0.083892482
     4.512788000  2.509675000  0.000000000     0.110796253  0.199228984 -0.083892482
     3.117095000  0.000000000  4.116727000    -0.000000000  0.000000000  0.242911420

  length of vectors
     5.163692878  5.163692878  5.163692713     0.242911396  0.242911396  0.242911420

  position of ions in fractional coordinates (direct lattice)
     0.999320000  0.999320000  0.999320000
     0.625659000  0.127480000  0.625659000
     0.127480000  0.625659000  0.625659000
     0.625659000  0.625659000  0.127480000
     0.247284000  0.247284000  0.247284000
     0.624597000  0.624597000  0.624597000

  ion indices of the primitive-cell ions
   primitive index   ion index
                 1           1
                 2           2
                 3           3
                 4           4
                 5           5
                 6           6

----------------------------------------------------------------------------------------

 
 
 KPOINTS: Kpoints from vasprun.xml                

Automatic generation of k-mesh.
 Grid dimensions read from file:
 generate k-points for:    6    6    6

 Generating k-lattice:

  Cartesian coordinates                     Fractional coordinates (reciprocal lattice)
     0.018466042 -0.033204831 -0.013982080     0.166666667  0.000000000 -0.000000000
     0.018466042  0.033204831 -0.013982080     0.000000000  0.166666667 -0.000000000
    -0.000000000  0.000000000  0.040485237     0.000000000  0.000000000  0.166666667

  Length of vectors
     0.040485233  0.040485233  0.040485237

  Shift w.r.t. Gamma in fractional coordinates (k-lattice)
     0.500000000  0.500000000  0.500000000

 TETIRR: Found    114 inequivalent tetrahedra from     1296
 
 Subroutine IBZKPT returns following result:
 ===========================================
 
 Found     28 irreducible k-points:
 
 Following reciprocal coordinates:
            Coordinates               Weight
  0.083333  0.083333  0.083333      2.000000
  0.250000  0.083333  0.083333      6.000000
  0.416667  0.083333  0.083333      6.000000
 -0.416667  0.083333  0.083333      6.000000
 -0.250000  0.083333  0.083333      6.000000
 -0.083333  0.083333  0.083333      6.000000
  0.250000  0.250000  0.083333      6.000000
  0.416667  0.250000  0.083333     12.000000
 -0.416667  0.250000  0.083333     12.000000
 -0.250000  0.250000  0.083333     12.000000
 -0.083333  0.250000  0.083333     12.000000
  0.416667  0.416667  0.083333      6.000000
 -0.416667  0.416667  0.083333     12.000000
 -0.250000  0.416667  0.083333     12.000000
 -0.083333  0.416667  0.083333     12.000000
 -0.416667 -0.416667  0.083333      6.000000
 -0.250000 -0.416667  0.083333     12.000000
 -0.250000 -0.250000  0.083333      6.000000
  0.250000  0.250000  0.250000      2.000000
  0.416667  0.250000  0.250000      6.000000
 -0.416667  0.250000  0.250000      6.000000
 -0.250000  0.250000  0.250000      6.000000
  0.416667  0.416667  0.250000      6.000000
 -0.416667  0.416667  0.250000     12.000000
 -0.250000  0.416667  0.250000     12.000000
 -0.416667 -0.416667  0.250000      6.000000
  0.416667  0.416667  0.416667      2.000000
 -0.416667  0.416667  0.416667      6.000000
 
 Following cartesian coordinates:
            Coordinates               Weight
  0.018466  0.000000  0.006261      2.000000
  0.036932 -0.033205 -0.007722      6.000000
  0.055398 -0.066410 -0.021704      6.000000
 -0.036932  0.099614  0.048207      6.000000
 -0.018466  0.066410  0.034225      6.000000
  0.000000  0.033205  0.020243      6.000000
  0.055398  0.000000 -0.021704      6.000000
  0.073864 -0.033205 -0.035686     12.000000
 -0.018466  0.132819  0.034225     12.000000
  0.000000  0.099614  0.020243     12.000000
  0.018466  0.066410  0.006261     12.000000
  0.092330  0.000000 -0.049668      6.000000
  0.000000  0.166024  0.020243     12.000000
  0.018466  0.132819  0.006261     12.000000
  0.036932  0.099614 -0.007722     12.000000
 -0.092330  0.000000  0.090153      6.000000
 -0.073864 -0.033205  0.076171     12.000000
 -0.055398  0.000000  0.062189      6.000000
  0.055398  0.000000  0.018782      2.000000
  0.073864 -0.033205  0.004800      6.000000
 -0.018466  0.132819  0.074710      6.000000
  0.000000  0.099614  0.060728      6.000000
  0.092330  0.000000 -0.009183      6.000000
  0.000000  0.166024  0.060728     12.000000
  0.018466  0.132819  0.046746     12.000000
 -0.092330  0.000000  0.130638      6.000000
  0.092330  0.000000  0.031303      2.000000
  0.000000  0.166024  0.101213      6.000000
 


--------------------------------------------------------------------------------------------------------




 Dimension of arrays:
   k-points           NKPTS =     28   k-points in BZ     NKDIM =     28   number of bands    NBANDS=     64
   number of dos      NEDOS =    301   number of ions     NIONS =      6
   non local maximal  LDIM  =      8   non local SUM 2l+1 LMDIM =     32
   total plane-waves  NPLWV =  64000
   max r-space proj   IRMAX =  12436   max aug-charges    IRDMAX= 324970
   dimension x,y,z NGX =    40 NGY =   40 NGZ =   40
   dimension x,y,z NGXF=    80 NGYF=   80 NGZF=   80
   support grid    NGXF=   160 NGYF=  160 NGZF=  160
   ions per type =               1   4   1
   NGX,Y,Z   is equivalent  to a cutoff of  12.88, 12.88, 12.88 a.u.
   NGXF,Y,Z  is equivalent  to a cutoff of  25.76, 25.76, 25.76 a.u.

 SYSTEM =  unknown system                          
 POSCAR =  Gd1 Cu4 Pd1                             

 Startparameter for this run:
   NWRITE =      2    write-flag & timer
   PREC   = accura    normal or accurate (medium, high low for compatibility)
   ISTART =      0    job   : 0-new  1-cont  2-samecut
   ICHARG =      2    charge: 1-file 2-atom 10-const
   ISPIN  =      2    spin polarized calculation?
   LNONCOLLINEAR =      F non collinear calculations
   LSORBIT =      F    spin-orbit coupling
   INIWAV =      1    electr: 0-lowe 1-rand  2-diag
   LASPH  =      T    aspherical Exc in radial PAW
 Electronic Relaxation 1
   ENCUT  =  520.0 eV  38.22 Ry    6.18 a.u.   9.60  9.60  9.60*2*pi/ulx,y,z
   ENINI  =  520.0     initial cutoff
   ENAUG  =  758.2 eV  augmentation charge cutoff
   NELM   =   1000;   NELMIN=  2; NELMDL= -5     # of ELM steps 
   EDIFF  = 0.1E-03   stopping-criterion for ELM
   LREAL  =      T    real-space projection
   NLSPLINE    = F    spline interpolate recip. space projectors
   LCOMPAT=      F    compatible to vasp.4.4
   GGA_COMPAT  = T    GGA compatible to vasp.4.4-vasp.4.6
   LMAXPAW     = -100 max onsite density
   LMAXMIX     =    2 max onsite mixed and CHGCAR
   VOSKOWN=      0    Vosko Wilk Nusair interpolation
   ROPT   =   -0.00025  -0.00025  -0.00025
 Ionic relaxation
   EDIFFG = 0.1E-02   stopping-criterion for IOM
   NSW    =      0    number of steps for IOM
   NBLOCK =      1;   KBLOCK =      1    inner block; outer block 
   IBRION =     -1    ionic relax: 0-MD 1-quasi-New 2-CG
   NFREE  =      0    steps in history (QN), initial steepest desc. (CG)
   ISIF   =      3    stress and relaxation
   IWAVPR =     10    prediction:  0-non 1-charg 2-wave 3-comb
   ISYM   =      2    0-nonsym 1-usesym 2-fastsym
   LCORR  =      T    Harris-Foulkes like correction to forces

   POTIM  = 0.5000    time-step for ionic-motion
   TEIN   =    0.0    initial temperature
   TEBEG  =    0.0;   TEEND  =   0.0 temperature during run
   SMASS  =  -3.00    Nose mass-parameter (am)
   estimated Nose-frequenzy (Omega)   =  0.10E-29 period in steps = 0.13E+47 mass=  -0.609E-27a.u.
   SCALEE = 1.0000    scale energy and forces
   NPACO  =    256;   APACO  = 10.0  distance and # of slots for P.C.
   PSTRESS=    0.0 pullay stress

  Mass of Ions in am
   POMASS = 157.25 63.55106.42
  Ionic Valenz
   ZVAL   =  18.00 17.00 10.00
  Atomic Wigner-Seitz radii
   RWIGS  =  -1.00 -1.00 -1.00
  virtual crystal weights 
   VCA    =   1.00  1.00  1.00
   NELECT =      96.0000    total number of electrons
   NUPDOWN=      -1.0000    fix difference up-down

 DOS related values:
   EMIN   =  10.00;   EMAX   =-10.00  energy-range for DOS
   EFERMI =   0.00
   ISMEAR =    -5;   SIGMA  =   0.05  broadening in eV -4-tet -1-fermi 0-gaus

 Electronic relaxation 2 (details)
   IALGO  =     58    algorithm
   LDIAG  =      T    sub-space diagonalisation (order eigenvalues)
   LSUBROT=      F    optimize rotation matrix (better conditioning)
   TURBO    =      0    0=normal 1=particle mesh
   IRESTART =      0    0=no restart 2=restart with 2 vectors
   NREBOOT  =      0    no. of reboots
   NMIN     =      0    reboot dimension
   EREF     =   0.00    reference energy to select bands
   IMIX   =      4    mixing-type and parameters
     AMIX     =   0.40;   BMIX     =  1.00
     AMIX_MAG =   1.60;   BMIX_MAG =  1.00
     AMIN     =   0.10
     WC   =   100.;   INIMIX=   1;  MIXPRE=   1;  MAXMIX= -45

 Intra band minimization:
   WEIMIN = 0.0000     energy-eigenvalue tresh-hold
   EBREAK =  0.39E-06  absolut break condition
   DEPER  =   0.30     relativ break condition  

   TIME   =   0.40     timestep for ELM

  volume/ion in A,a.u.               =      15.54       104.88
  Fermi-wavevector in a.u.,A,eV,Ry     =   1.653041  3.123795 37.178547  2.732546
  Thomas-Fermi vector in A             =   2.741547
 
 Write flags
   LWAVE        =      F    write WAVECAR
   LDOWNSAMPLE  =      F    k-point downsampling of WAVECAR
   LCHARG       =      T    write CHGCAR
   LVTOT        =      F    write LOCPOT, total local potential
   LVHAR        =      T    write LOCPOT, Hartree potential only
   LELF         =      F    write electronic localiz. function (ELF)
   LORBIT       =     11    0 simple, 1 ext, 2 COOP (PROOUT), +10 PAW based schemes


 Dipole corrections
   LMONO  =      F    monopole corrections only (constant potential shift)
   LDIPOL =      F    correct potential (dipole corrections)
   IDIPOL =      0    1-x, 2-y, 3-z, 4-all directions 
   EPSILON=  1.0000000 bulk dielectric constant

 Exchange correlation treatment:
   GGA     =    --    GGA type
   LEXCH   =     8    internal setting for exchange type
   LIBXC   =     F    Libxc                    
   VOSKOWN =     0    Vosko Wilk Nusair interpolation
   LHFCALC =     F    Hartree Fock is set to
   LHFONE  =     F    Hartree Fock one center treatment
   AEXX    =    0.0000 exact exchange contribution

 Linear response parameters
   LEPSILON=     F    determine dielectric tensor
   LRPA    =     F    only Hartree local field effects (RPA)
   LNABLA  =     F    use nabla operator in PAW spheres
   LVEL    =     F    velocity operator in full k-point grid
   CSHIFT  =0.1000    complex shift for real part using Kramers Kronig
   OMEGAMAX=  -1.0    maximum frequency
   DEG_THRESHOLD= 0.2000000E-02 threshold for treating states as degnerate
   RTIME   =   -0.100 relaxation time in fs
  (WPLASMAI=    0.000 imaginary part of plasma frequency in eV, 0.658/RTIME)
   DFIELD  = 0.0000000 0.0000000 0.0000000 field for delta impulse in time
 
  Optional k-point grid parameters
   LKPOINTS_OPT  =     F    use optional k-point grid
   KPOINTS_OPT_MODE=     1    mode for optional k-point grid
 
 Orbital magnetization related:
   ORBITALMAG=     F  switch on orbital magnetization
   LCHIMAG   =     F  perturbation theory with respect to B field
   DQ        =  0.001000  dq finite difference perturbation B field
   LLRAUG    =     F  two centre corrections for induced B field



--------------------------------------------------------------------------------------------------------


 Static calculation
 charge density and potential will be updated during run
 spin polarized calculation
 Conjugate gradient for all bands (Freysoldt, et al. PRB 79, 241103 (2009))
 preconditioned conjugated gradient                                        
 perform sub-space diagonalisation
    before iterative eigenvector-optimisation
 modified Broyden-mixing scheme, WC =      100.0
 initial mixing is a Kerker type mixing with AMIX =  0.4000 and BMIX =      1.0000
 Hartree-type preconditioning will be used
 using additional bands            16
 real space projection scheme for non local part
 use partial core corrections
 no Harris-corrections to forces 
 use gradient corrections 
 use of overlap-Matrix (Vanderbilt PP)
 Fermi weights with tetrahedron method with Bloechl corrections


--------------------------------------------------------------------------------------------------------


  energy-cutoff  :      520.00
  volume of cell :       93.25
      direct lattice vectors                 reciprocal lattice vectors
     4.512788000 -2.509675000  0.000000000     0.110796253 -0.199228984 -0.083892482
     4.512788000  2.509675000  0.000000000     0.110796253  0.199228984 -0.083892482
     3.117095000  0.000000000  4.116727000    -0.000000000  0.000000000  0.242911420

  length of vectors
     5.163692878  5.163692878  5.163692713     0.242911396  0.242911396  0.242911420


 
 k-points in units of 2pi/SCALE and weight: Kpoints from vasprun.xml                
   0.01846604 -0.00000000  0.00626054       0.009
   0.03693208 -0.03320483 -0.00772154       0.028
   0.05539813 -0.06640966 -0.02170362       0.028
  -0.03693208  0.09961449  0.04820678       0.028
  -0.01846604  0.06640966  0.03422470       0.028
   0.00000000  0.03320483  0.02024262       0.028
   0.05539813  0.00000000 -0.02170362       0.028
   0.07386417 -0.03320483 -0.03568570       0.056
  -0.01846604  0.13281932  0.03422470       0.056
   0.00000000  0.09961449  0.02024262       0.056
   0.01846604  0.06640966  0.00626054       0.056
   0.09233021 -0.00000000 -0.04966778       0.028
   0.00000000  0.16602415  0.02024262       0.056
   0.01846604  0.13281932  0.00626054       0.056
   0.03693208  0.09961449 -0.00772154       0.056
  -0.09233021  0.00000000  0.09015302       0.028
  -0.07386417 -0.03320483  0.07617094       0.056
  -0.05539813  0.00000000  0.06218886       0.028
   0.05539813  0.00000000  0.01878161       0.009
   0.07386417 -0.03320483  0.00479953       0.028
  -0.01846604  0.13281932  0.07470994       0.028
   0.00000000  0.09961449  0.06072785       0.028
   0.09233021 -0.00000000 -0.00918255       0.028
   0.00000000  0.16602415  0.06072785       0.056
   0.01846604  0.13281932  0.04674577       0.056
  -0.09233021  0.00000000  0.13063826       0.028
   0.09233021 -0.00000000  0.03130269       0.009
   0.00000000  0.16602415  0.10121309       0.028
 
 k-points in reciprocal lattice and weights: Kpoints from vasprun.xml                
   0.08333333  0.08333333  0.08333333       0.009
   0.25000000  0.08333333  0.08333333       0.028
   0.41666667  0.08333333  0.08333333       0.028
  -0.41666667  0.08333333  0.08333333       0.028
  -0.25000000  0.08333333  0.08333333       0.028
  -0.08333333  0.08333333  0.08333333       0.028
   0.25000000  0.25000000  0.08333333       0.028
   0.41666667  0.25000000  0.08333333       0.056
  -0.41666667  0.25000000  0.08333333       0.056
  -0.25000000  0.25000000  0.08333333       0.056
  -0.08333333  0.25000000  0.08333333       0.056
   0.41666667  0.41666667  0.08333333       0.028
  -0.41666667  0.41666667  0.08333333       0.056
  -0.25000000  0.41666667  0.08333333       0.056
  -0.08333333  0.41666667  0.08333333       0.056
  -0.41666667 -0.41666667  0.08333333       0.028
  -0.25000000 -0.41666667  0.08333333       0.056
  -0.25000000 -0.25000000  0.08333333       0.028
   0.25000000  0.25000000  0.25000000       0.009
   0.41666667  0.25000000  0.25000000       0.028
  -0.41666667  0.25000000  0.25000000       0.028
  -0.25000000  0.25000000  0.25000000       0.028
   0.41666667  0.41666667  0.25000000       0.028
  -0.41666667  0.41666667  0.25000000       0.056
  -0.25000000  0.41666667  0.25000000       0.056
  -0.41666667 -0.41666667  0.25000000       0.028
   0.41666667  0.41666667  0.41666667       0.009
  -0.41666667  0.41666667  0.41666667       0.028
 
 position of ions in fractional coordinates (direct lattice) 
   0.99932000  0.99932000  0.99932000
   0.62565900  0.12748000  0.62565900
   0.12748000  0.62565900  0.62565900
   0.62565900  0.62565900  0.12748000
   0.24728400  0.24728400  0.24728400
   0.62459700  0.62459700  0.62459700
 
 position of ions in cartesian coordinates  (Angst):
  12.13441398 -0.00000000  4.11392763
   5.34899518 -1.25026738  2.57566730
   5.34899518  1.25026738  2.57566730
   6.04430013  0.00000000  0.52480036
   3.00268826  0.00000000  1.01800072
   7.58427588  0.00000000  2.57129533
 


--------------------------------------------------------------------------------------------------------


 k-point   1 :   0.0833 0.0833 0.0833  plane waves:    2527
 k-point   2 :   0.2500 0.0833 0.0833  plane waves:    2519
 k-point   3 :   0.4167 0.0833 0.0833  plane waves:    2507
 k-point   4 :  -0.4167 0.0833 0.0833  plane waves:    2504
 k-point   5 :  -0.2500 0.0833 0.0833  plane waves:    2519
 k-point   6 :  -0.0833 0.0833 0.0833  plane waves:    2529
 k-point   7 :   0.2500 0.2500 0.0833  plane waves:    2515
 k-point   8 :   0.4167 0.2500 0.0833  plane waves:    2516
 k-point   9 :  -0.4167 0.2500 0.0833  plane waves:    2509
 k-point  10 :  -0.2500 0.2500 0.0833  plane waves:    2499
 k-point  11 :  -0.0833 0.2500 0.0833  plane waves:    2517
 k-point  12 :   0.4167 0.4167 0.0833  plane waves:    2506
 k-point  13 :  -0.4167 0.4167 0.0833  plane waves:    2512
 k-point  14 :  -0.2500 0.4167 0.0833  plane waves:    2504
 k-point  15 :  -0.0833 0.4167 0.0833  plane waves:    2508
 k-point  16 :  -0.4167-0.4167 0.0833  plane waves:    2511
 k-point  17 :  -0.2500-0.4167 0.0833  plane waves:    2511
 k-point  18 :  -0.2500-0.2500 0.0833  plane waves:    2513
 k-point  19 :   0.2500 0.2500 0.2500  plane waves:    2533
 k-point  20 :   0.4167 0.2500 0.2500  plane waves:    2514
 k-point  21 :  -0.4167 0.2500 0.2500  plane waves:    2509
 k-point  22 :  -0.2500 0.2500 0.2500  plane waves:    2507
 k-point  23 :   0.4167 0.4167 0.2500  plane waves:    2507
 k-point  24 :  -0.4167 0.4167 0.2500  plane waves:    2505
 k-point  25 :  -0.2500 0.4167 0.2500  plane waves:    2508
 k-point  26 :  -0.4167-0.4167 0.2500  plane waves:    2503
 k-point  27 :   0.4167 0.4167 0.4167  plane waves:    2500
 k-point  28 :  -0.4167 0.4167 0.4167  plane waves:    2500

 maximum and minimum number of plane-waves per node :      2533     2499

 maximum number of plane-waves:      2533
 maximum index in each direction: 
   IXMAX=   10   IYMAX=   10   IZMAX=    9
   IXMIN=  -10   IYMIN=  -10   IZMIN=   -9


 serial   3D FFT for wavefunctions
 parallel 3D FFT for charge:
    minimum data exchange during FFTs selected (reduces bandwidth)


 total amount of memory used by VASP MPI-rank0   191378. kBytes
=======================================================================

   base      :      30000. kBytes
   nonlr-proj:      10572. kBytes
   fftplans  :      19153. kBytes
   grid      :      16665. kBytes
   one-center:        589. kBytes
   wavefun   :     114399. kBytes
 
     INWAV:  cpu time      0.0002: real time      0.0004
 Broyden mixing: mesh for mixing (old mesh)
   NGX = 19   NGY = 19   NGZ = 19
  (NGX  = 80   NGY  = 80   NGZ  = 80)
  gives a total of   6859 points

 initial charge density was supplied:
 charge density of overlapping atoms calculated
 number of electron      96.0000000 magnetization      10.0000000
 keeping initial charge density in first step


--------------------------------------------------------------------------------------------------------


 Maximum index for non-local projection operator         12013
 BZINTS: Fermi energy:   28.578078;   96.000000 electrons
         Band energy: 0.163367E+04;  BLOECHL correction: -181.317095
 Maximum index for augmentation-charges         78844 (set IRDMAX)


--------------------------------------------------------------------------------------------------------


 First call to EWALD:  gamma=   0.391
 Maximum number of real-space cells 3x 3x 3
 Maximum number of reciprocal cells 3x 3x 3

    FEWALD:  cpu time      0.0007: real time      0.0007
 -----------------------------------------------------------------------------
|                                                                             |
|           W    W    AA    RRRRR   N    N  II  N    N   GGGG   !!!           |
|           W    W   A  A   R    R  NN   N  II  NN   N  G    G  !!!           |
|           W    W  A    A  R    R  N N  N  II  N N  N  G       !!!           |
|           W WW W  AAAAAA  RRRRR   N  N N  II  N  N N  G  GGG   !            |
|           WW  WW  A    A  R   R   N   NN  II  N   NN  G    G                |
|           W    W  A    A  R    R  N    N  II  N    N   GGGG   !!!           |
|                                                                             |
|     ALGO=A and IALGO=5X tend to fail with the tetrahedron method (e.g.      |
|     Bloechl's method, ISMEAR=-5, is not variational). Please switch to      |
|     IMSEAR=0-n, except for DOS calculations. For DOS calculations use       |
|     IALGO=53 after pre-converging with ISMEAR>=0.                           |
|     I HOPE YOU KNOW WHAT YOU ARE DOING!                                     |
|                                                                             |
 -----------------------------------------------------------------------------



--------------------------------------- Iteration      1(   1)  ---------------------------------------


    POTLOK:  cpu time      0.1553: real time      0.1884
    SETDIJ:  cpu time      1.4624: real time      1.4631
 BZINTS: Fermi energy:   23.955775;   96.000000 electrons
         Band energy:-0.179613E+03;  BLOECHL correction:   -0.334008
    TRIAL :  cpu time      4.1962: real time      4.2041
 BZINTS: Fermi energy:   23.955775;   96.000000 electrons
         Band energy:-0.179613E+03;  BLOECHL correction:   -0.334008
    CORREC:  cpu time      0.0667: real time      0.0667
    --------------------------------------------
      LOOP:  cpu time      5.9150: real time      5.9567

 eigenvalue-minimisations  : 10648
 total energy-change (2. order) : 0.1128627E+04  (-0.5735259E+04)
 number of electron      96.0000000 magnetization      10.0000000
 augmentation part       96.0000000 magnetization      10.0000000

 Free energy of the ion-electron system (eV)
  ---------------------------------------------------
  alpha Z        PSCENC =       832.12757875
  Ewald energy   TEWEN  =    -12881.75342006
  -Hartree energ DENC   =     -6738.33559211
  -exchange      EXHF   =         0.00000000
  -V(xc)+E(xc)   XCENC  =       497.53376998
  PAW double counting   =     17232.51968184   -17971.46529240
  entropy T*S    EENTRO =         0.00000000
  eigenvalues    EBANDS =      -179.61341255
  atomic energy  EATOM  =     20337.61373099
  ---------------------------------------------------
  free energy    TOTEN  =      1128.62704445 eV

  energy without entropy =     1128.62704445  energy(sigma->0) =     1128.62704445


--------------------------------------------------------------------------------------------------------




--------------------------------------- Iteration      1(   2)  ---------------------------------------


 BZINTS: Fermi energy:    9.140477;   96.000000 electrons
         Band energy:-0.122641E+04;  BLOECHL correction:   -0.081412
    TRIAL :  cpu time      3.3883: real time      3.3898
 BZINTS: Fermi energy:    9.140477;   96.000000 electrons
         Band energy:-0.122641E+04;  BLOECHL correction:   -0.081412
    CORREC:  cpu time      0.0584: real time      0.0584
    --------------------------------------------
      LOOP:  cpu time      3.4482: real time      3.4508

 eigenvalue-minimisations  :  8280
 total energy-change (2. order) :-0.1046796E+04  (-0.9882280E+03)
 number of electron      96.0000000 magnetization      10.0000000
 augmentation part       96.0000000 magnetization      10.0000000

 Free energy of the ion-electron system (eV)
  ---------------------------------------------------
  alpha Z        PSCENC =       832.12757875
  Ewald energy   TEWEN  =    -12881.75342006
  -Hartree energ DENC   =     -6738.33559211
  -exchange      EXHF   =         0.00000000
  -V(xc)+E(xc)   XCENC  =       497.53376998
  PAW double counting   =     17232.51968184   -17971.46529240
  entropy T*S    EENTRO =         0.00000000
  eigenvalues    EBANDS =     -1226.40958027
  atomic energy  EATOM  =     20337.61373099
  ---------------------------------------------------
  free energy    TOTEN  =        81.83087672 eV

  energy without entropy =       81.83087672  energy(sigma->0) =       81.83087672


--------------------------------------------------------------------------------------------------------




--------------------------------------- Iteration      1(   3)  ---------------------------------------


 BZINTS: Fermi energy:    6.743320;   96.000000 electrons
         Band energy:-0.135085E+04;  BLOECHL correction:   -0.016585
    TRIAL :  cpu time      3.1752: real time      3.1763
 BZINTS: Fermi energy:    6.743320;   96.000000 electrons
         Band energy:-0.135085E+04;  BLOECHL correction:   -0.016585
    CORREC:  cpu time      0.0564: real time      0.0565
    --------------------------------------------
      LOOP:  cpu time      3.2340: real time      3.2364

 eigenvalue-minimisations  :  7536
 total energy-change (2. order) :-0.1244414E+03  (-0.1138902E+03)
 number of electron      96.0000000 magnetization      10.0000000
 augmentation part       96.0000000 magnetization      10.0000000

 Free energy of the ion-electron system (eV)
  ---------------------------------------------------
  alpha Z        PSCENC =       832.12757875
  Ewald energy   TEWEN  =    -12881.75342006
  -Hartree energ DENC   =     -6738.33559211
  -exchange      EXHF   =         0.00000000
  -V(xc)+E(xc)   XCENC  =       497.53376998
  PAW double counting   =     17232.51968184   -17971.46529240
  entropy T*S    EENTRO =         0.00000000
  eigenvalues    EBANDS =     -1350.85100297
  atomic energy  EATOM  =     20337.61373099
  ---------------------------------------------------
  free energy    TOTEN  =       -42.61054598 eV

  energy without entropy =      -42.61054598  energy(sigma->0) =      -42.61054598


--------------------------------------------------------------------------------------------------------




--------------------------------------- Iteration      1(   4)  ---------------------------------------


 BZINTS: Fermi energy:    6.639515;   96.000000 electrons
         Band energy:-0.135980E+04;  BLOECHL correction:   -0.014359
    TRIAL :  cpu time      3.7033: real time      3.7047
 BZINTS: Fermi energy:    6.639515;   96.000000 electrons
         Band energy:-0.135980E+04;  BLOECHL correction:   -0.014359
    CORREC:  cpu time      0.0512: real time      0.0512
    --------------------------------------------
      LOOP:  cpu time      3.7559: real time      3.7580

 eigenvalue-minimisations  :  9192
 total energy-change (2. order) :-0.8946073E+01  (-0.8738412E+01)
 number of electron      96.0000000 magnetization      10.0000000
 augmentation part       96.0000000 magnetization      10.0000000

 Free energy of the ion-electron system (eV)
  ---------------------------------------------------
  alpha Z        PSCENC =       832.12757875
  Ewald energy   TEWEN  =    -12881.75342006
  -Hartree energ DENC   =     -6738.33559211
  -exchange      EXHF   =         0.00000000
  -V(xc)+E(xc)   XCENC  =       497.53376998
  PAW double counting   =     17232.51968184   -17971.46529240
  entropy T*S    EENTRO =         0.00000000
  eigenvalues    EBANDS =     -1359.79707572
  atomic energy  EATOM  =     20337.61373099
  ---------------------------------------------------
  free energy    TOTEN  =       -51.55661873 eV

  energy without entropy =      -51.55661873  energy(sigma->0) =      -51.55661873


--------------------------------------------------------------------------------------------------------




--------------------------------------- Iteration      1(   5)  ---------------------------------------


 BZINTS: Fermi energy:    6.634701;   96.000000 electrons
         Band energy:-0.136025E+04;  BLOECHL correction:   -0.014359
    TRIAL :  cpu time      4.3339: real time      4.3370
 BZINTS: Fermi energy:    6.634701;   96.000000 electrons
         Band energy:-0.136025E+04;  BLOECHL correction:   -0.014359
    CORREC:  cpu time      0.0543: real time      0.0543
    CHARGE:  cpu time      0.1768: real time      0.1768
    --------------------------------------------
      LOOP:  cpu time      4.5658: real time      4.5699

 eigenvalue-minimisations  : 11264
 total energy-change (2. order) :-0.4539757E+00  (-0.4521630E+00)
 number of electron      96.0000002 magnetization       5.3868816
 augmentation part       52.4559494 magnetization       3.3974735

 Free energy of the ion-electron system (eV)
  ---------------------------------------------------
  alpha Z        PSCENC =       832.12757875
  Ewald energy   TEWEN  =    -12881.75342006
  -Hartree energ DENC   =     -6738.33559211
  -exchange      EXHF   =         0.00000000
  -V(xc)+E(xc)   XCENC  =       497.53376998
  PAW double counting   =     17232.51968184   -17971.46529240
  entropy T*S    EENTRO =         0.00000000
  eigenvalues    EBANDS =     -1360.25105144
  atomic energy  EATOM  =     20337.61373099
  ---------------------------------------------------
  free energy    TOTEN  =       -52.01059445 eV

  energy without entropy =      -52.01059445  energy(sigma->0) =      -52.01059445


--------------------------------------------------------------------------------------------------------




--------------------------------------- Iteration      1(   6)  ---------------------------------------


    POTLOK:  cpu time      0.0066: real time      0.0066
    SETDIJ:  cpu time      1.4576: real time      1.4581
    TRIAL :  cpu time      2.2292: real time      2.2318
 BZINTS: Fermi energy:    9.999737;   96.000000 electrons
         Band energy:-0.170112E+04;  BLOECHL correction:   -0.105962
 BZINTS: Fermi energy:    9.751788;   96.000000 electrons
         Band energy:-0.146323E+04;  BLOECHL correction:   -0.056850
    CORREC:  cpu time      2.1173: real time      2.1184
    CHARGE:  cpu time      0.1741: real time      0.1742
    --------------------------------------------
      LOOP:  cpu time      5.9853: real time      5.9905

 eigenvalue-minimisations  :     0
 total energy-change (2. order) : 0.7979021E+03  (-0.7031658E+03)
 number of electron      96.0000002 magnetization       1.0870766
 augmentation part       51.6819959 magnetization       0.2129491

 Free energy of the ion-electron system (eV)
  ---------------------------------------------------
  alpha Z        PSCENC =       832.12757875
  Ewald energy   TEWEN  =    -12881.75342006
  -Hartree energ DENC   =     -5665.43742185
  -exchange      EXHF   =         0.00000000
  -V(xc)+E(xc)   XCENC  =       462.23871869
  PAW double counting   =     16798.38653642   -17964.83859604
  entropy T*S    EENTRO =         0.00000000
  eigenvalues    EBANDS =     -1172.44560307
  atomic energy  EATOM  =     20337.61373099
  ---------------------------------------------------
  free energy    TOTEN  =       745.89152384 eV

  energy without entropy =      745.89152384  energy(sigma->0) =      745.89152384


--------------------------------------------------------------------------------------------------------




--------------------------------------- Iteration      1(   7)  ---------------------------------------


    POTLOK:  cpu time      0.0068: real time      0.0068
    SETDIJ:  cpu time      1.4559: real time      1.4563
    TRIAL :  cpu time      2.2263: real time      2.2278
 BZINTS: Fermi energy:    6.162863;   96.000000 electrons
         Band energy:-0.149093E+04;  BLOECHL correction:   -0.021200
 BZINTS: Fermi energy:    5.759273;   96.000000 electrons
         Band energy:-0.143608E+04;  BLOECHL correction:   -0.031183
    CORREC:  cpu time      2.1289: real time      2.1299
    CHARGE:  cpu time      0.1736: real time      0.1737
    --------------------------------------------
      LOOP:  cpu time      5.9922: real time      5.9959

 eigenvalue-minimisations  :     0
 total energy-change (2. order) :-0.3437284E+02  (-0.1903565E+03)
 number of electron      96.0000003 magnetization       5.4604006
 augmentation part       53.9294468 magnetization       3.2796377

 Free energy of the ion-electron system (eV)
  ---------------------------------------------------
  alpha Z        PSCENC =       832.12757875
  Ewald energy   TEWEN  =    -12881.75342006
  -Hartree energ DENC   =     -7354.54308834
  -exchange      EXHF   =         0.00000000
  -V(xc)+E(xc)   XCENC  =       494.50759375
  PAW double counting   =     20824.99860285   -21606.10220847
  entropy T*S    EENTRO =         0.00000000
  eigenvalues    EBANDS =        64.66989419
  atomic energy  EATOM  =     20337.61373099
  ---------------------------------------------------
  free energy    TOTEN  =       711.51868367 eV

  energy without entropy =      711.51868367  energy(sigma->0) =      711.51868367


--------------------------------------------------------------------------------------------------------




--------------------------------------- Iteration      1(   8)  ---------------------------------------


    POTLOK:  cpu time      0.0066: real time      0.0066
    SETDIJ:  cpu time      1.4567: real time      1.4571
    TRIAL :  cpu time      2.2207: real time      2.2215
 BZINTS: Fermi energy:    6.595073;   96.000000 electrons
         Band energy:-0.147618E+04;  BLOECHL correction:   -0.014309
 BZINTS: Fermi energy:    5.441210;   96.000000 electrons
         Band energy:-0.143960E+04;  BLOECHL correction:   -0.029059
    CORREC:  cpu time      2.1195: real time      2.1205
    CHARGE:  cpu time      0.1737: real time      0.1737
    --------------------------------------------
      LOOP:  cpu time      5.9774: real time      5.9809

 eigenvalue-minimisations  :     0
 total energy-change (2. order) :-0.6729528E+03  (-0.2719962E+02)
 number of electron      96.0000002 magnetization       4.3006047
 augmentation part       49.0553617 magnetization       1.8956185

 Free energy of the ion-electron system (eV)
  ---------------------------------------------------
  alpha Z        PSCENC =       832.12757875
  Ewald energy   TEWEN  =    -12881.75342006
  -Hartree energ DENC   =     -6617.25290932
  -exchange      EXHF   =         0.00000000
  -V(xc)+E(xc)   XCENC  =       494.24346794
  PAW double counting   =     19982.25918492   -20753.09876451
  entropy T*S    EENTRO =         0.00000000
  eigenvalues    EBANDS =     -1355.57302093
  atomic energy  EATOM  =     20337.61373099
  ---------------------------------------------------
  free energy    TOTEN  =        38.56584779 eV

  energy without entropy =       38.56584779  energy(sigma->0) =       38.56584779


--------------------------------------------------------------------------------------------------------




--------------------------------------- Iteration      1(   9)  ---------------------------------------


    POTLOK:  cpu time      0.0067: real time      0.0067
    SETDIJ:  cpu time      1.4575: real time      1.4580
    TRIAL :  cpu time      2.2274: real time      2.2288
 BZINTS: Fermi energy:    7.395263;   96.000000 electrons
         Band energy:-0.155703E+04;  BLOECHL correction:   -0.177783
 BZINTS: Fermi energy:    6.382100;   96.000000 electrons
         Band energy:-0.149998E+04;  BLOECHL correction:   -0.112914
    CORREC:  cpu time      2.1233: real time      2.1240
    CHARGE:  cpu time      0.1729: real time      0.1730
    --------------------------------------------
      LOOP:  cpu time      5.9886: real time      5.9919

 eigenvalue-minimisations  :     0
 total energy-change (2. order) : 0.3506374E+03  (-0.6680645E+03)
 number of electron      96.0000002 magnetization       3.4427904
 augmentation part       54.4084902 magnetization       0.2131599

 Free energy of the ion-electron system (eV)
  ---------------------------------------------------
  alpha Z        PSCENC =       832.12757875
  Ewald energy   TEWEN  =    -12881.75342006
  -Hartree energ DENC   =     -5767.07564916
  -exchange      EXHF   =         0.00000000
  -V(xc)+E(xc)   XCENC  =       466.81557404
  PAW double counting   =     32217.55715052   -32878.73588273
  entropy T*S    EENTRO =         0.00000000
  eigenvalues    EBANDS =     -1937.34582859
  atomic energy  EATOM  =     20337.61373099
  ---------------------------------------------------
  free energy    TOTEN  =       389.20325376 eV

  energy without entropy =      389.20325376  energy(sigma->0) =      389.20325376


--------------------------------------------------------------------------------------------------------




--------------------------------------- Iteration      1(  10)  ---------------------------------------


    POTLOK:  cpu time      0.0066: real time      0.0067
    SETDIJ:  cpu time      1.4605: real time      1.4610
    TRIAL :  cpu time      2.2278: real time      2.2288
 BZINTS: Fermi energy:    7.736820;   96.000000 electrons
         Band energy:-0.148209E+04;  BLOECHL correction:   -0.190299
 BZINTS: Fermi energy:    7.087554;   96.000000 electrons
         Band energy:-0.149121E+04;  BLOECHL correction:   -0.096142
    CORREC:  cpu time      2.1598: real time      2.1614
    CHARGE:  cpu time      0.1767: real time      0.1769
    --------------------------------------------
      LOOP:  cpu time      6.0322: real time      6.0361

 eigenvalue-minimisations  :     0
 total energy-change (2. order) :-0.2669876E+03  (-0.1276297E+03)
 number of electron      96.0000002 magnetization       1.9842984
 augmentation part       54.4041516 magnetization       0.2126385

 Free energy of the ion-electron system (eV)
  ---------------------------------------------------
  alpha Z        PSCENC =       832.12757875
  Ewald energy   TEWEN  =    -12881.75342006
  -Hartree energ DENC   =     -6848.63407202
  -exchange      EXHF   =         0.00000000
  -V(xc)+E(xc)   XCENC  =       498.70572854
  PAW double counting   =     21979.61513096   -22768.38830676
  entropy T*S    EENTRO =         0.00000000
  eigenvalues    EBANDS =     -1027.07076190
  atomic energy  EATOM  =     20337.61373099
  ---------------------------------------------------
  free energy    TOTEN  =       122.21560851 eV

  energy without entropy =      122.21560851  energy(sigma->0) =      122.21560851


--------------------------------------------------------------------------------------------------------




--------------------------------------- Iteration      1(  11)  ---------------------------------------


    POTLOK:  cpu time      0.0067: real time      0.0067
    SETDIJ:  cpu time      1.4790: real time      1.4798
    TRIAL :  cpu time      2.2289: real time      2.2307
 BZINTS: Fermi energy:    8.045466;   96.000000 electrons
         Band energy:-0.144447E+04;  BLOECHL correction:   -0.178850
 BZINTS: Fermi energy:    7.588301;   96.000000 electrons
         Band energy:-0.147795E+04;  BLOECHL correction:   -0.157765
    CORREC:  cpu time      2.1569: real time      2.1588
    CHARGE:  cpu time      0.1775: real time      0.1779
    --------------------------------------------
      LOOP:  cpu time      6.0494: real time      6.0556

 eigenvalue-minimisations  :     0
 total energy-change (2. order) :-0.5656851E+02  (-0.4151337E+02)
 number of electron      96.0000002 magnetization       1.1443886
 augmentation part       54.3770121 magnetization       0.0040983

 Free energy of the ion-electron system (eV)
  ---------------------------------------------------
  alpha Z        PSCENC =       832.12757875
  Ewald energy   TEWEN  =    -12881.75342006
  -Hartree energ DENC   =     -6755.66489976
  -exchange      EXHF   =         0.00000000
  -V(xc)+E(xc)   XCENC  =       495.51616134
  PAW double counting   =     20243.13002312   -21052.64460848
  entropy T*S    EENTRO =         0.00000000
  eigenvalues    EBANDS =     -1152.67746752
  atomic energy  EATOM  =     20337.61373099
  ---------------------------------------------------
  free energy    TOTEN  =        65.64709839 eV

  energy without entropy =       65.64709839  energy(sigma->0) =       65.64709839


--------------------------------------------------------------------------------------------------------




--------------------------------------- Iteration      1(  12)  ---------------------------------------


    POTLOK:  cpu time      0.0066: real time      0.0066
    SETDIJ:  cpu time      1.4773: real time      1.4781
    TRIAL :  cpu time      2.2290: real time      2.2303
 BZINTS: Fermi energy:    8.048285;   96.000000 electrons
         Band energy:-0.144667E+04;  BLOECHL correction:   -0.190915
 BZINTS: Fermi energy:    7.942304;   96.000000 electrons
         Band energy:-0.146045E+04;  BLOECHL correction:   -0.188764
    CORREC:  cpu time      2.1239: real time      2.1249
    CHARGE:  cpu time      0.1758: real time      0.1760
    --------------------------------------------
      LOOP:  cpu time      6.0132: real time      6.0170

 eigenvalue-minimisations  :     0
 total energy-change (2. order) :-0.3238264E+02  (-0.2878418E+02)
 number of electron      96.0000002 magnetization       0.6300564
 augmentation part       54.4742908 magnetization      -0.0029257

 Free energy of the ion-electron system (eV)
  ---------------------------------------------------
  alpha Z        PSCENC =       832.12757875
  Ewald energy   TEWEN  =    -12881.75342006
  -Hartree energ DENC   =     -6712.98753660
  -exchange      EXHF   =         0.00000000
  -V(xc)+E(xc)   XCENC  =       494.09977683
  PAW double counting   =     19210.40292245   -20020.73849524
  entropy T*S    EENTRO =         0.00000000
  eigenvalues    EBANDS =     -1225.50009473
  atomic energy  EATOM  =     20337.61373099
  ---------------------------------------------------
  free energy    TOTEN  =        33.26446239 eV

  energy without entropy =       33.26446239  energy(sigma->0) =       33.26446239


--------------------------------------------------------------------------------------------------------




--------------------------------------- Iteration      1(  13)  ---------------------------------------


    POTLOK:  cpu time      0.0067: real time      0.0067
    SETDIJ:  cpu time      1.4663: real time      1.4667
    TRIAL :  cpu time      2.2265: real time      2.2279
 BZINTS: Fermi energy:    8.230814;   96.000000 electrons
         Band energy:-0.141149E+04;  BLOECHL correction:   -0.192522
 BZINTS: Fermi energy:    8.164620;   96.000000 electrons
         Band energy:-0.143550E+04;  BLOECHL correction:   -0.187403
    CORREC:  cpu time      2.1503: real time      2.1517
    CHARGE:  cpu time      0.1750: real time      0.1751
    --------------------------------------------
      LOOP:  cpu time      6.0255: real time      6.0296

 eigenvalue-minimisations  :     0
 total energy-change (2. order) :-0.2368827E+02  (-0.3459482E+02)
 number of electron      96.0000002 magnetization       0.1916111
 augmentation part       53.4597713 magnetization      -0.1184633

 Free energy of the ion-electron system (eV)
  ---------------------------------------------------
  alpha Z        PSCENC =       832.12757875
  Ewald energy   TEWEN  =    -12881.75342006
  -Hartree energ DENC   =     -6637.20516747
  -exchange      EXHF   =         0.00000000
  -V(xc)+E(xc)   XCENC  =       492.58922838
  PAW double counting   =     18425.70282462   -19255.41849376
  entropy T*S    EENTRO =         0.00000000
  eigenvalues    EBANDS =     -1304.08008638
  atomic energy  EATOM  =     20337.61373099
  ---------------------------------------------------
  free energy    TOTEN  =         9.57619507 eV

  energy without entropy =        9.57619507  energy(sigma->0) =        9.57619507


--------------------------------------------------------------------------------------------------------




--------------------------------------- Iteration      1(  14)  ---------------------------------------


    POTLOK:  cpu time      0.0066: real time      0.0066
    SETDIJ:  cpu time      1.4671: real time      1.4678
    TRIAL :  cpu time      2.2325: real time      2.2341
 BZINTS: Fermi energy:    7.853088;   96.000000 electrons
         Band energy:-0.144047E+04;  BLOECHL correction:   -0.194186
 BZINTS: Fermi energy:    8.057605;   96.000000 electrons
         Band energy:-0.143720E+04;  BLOECHL correction:   -0.188115
    CORREC:  cpu time      2.1340: real time      2.1352
    CHARGE:  cpu time      0.1734: real time      0.1735
    --------------------------------------------
      LOOP:  cpu time      6.0140: real time      6.0186

 eigenvalue-minimisations  :     0
 total energy-change (2. order) :-0.1671809E+02  (-0.3625350E+01)
 number of electron      96.0000002 magnetization       0.1209231
 augmentation part       53.5182607 magnetization      -0.1270529

 Free energy of the ion-electron system (eV)
  ---------------------------------------------------
  alpha Z        PSCENC =       832.12757875
  Ewald energy   TEWEN  =    -12881.75342006
  -Hartree energ DENC   =     -6464.20454217
  -exchange      EXHF   =         0.00000000
  -V(xc)+E(xc)   XCENC  =       485.52798045
  PAW double counting   =     17814.88422437   -18582.68612321
  entropy T*S    EENTRO =         0.00000000
  eigenvalues    EBANDS =     -1548.65132095
  atomic energy  EATOM  =     20337.61373099
  ---------------------------------------------------
  free energy    TOTEN  =        -7.14189182 eV

  energy without entropy =       -7.14189182  energy(sigma->0) =       -7.14189182


--------------------------------------------------------------------------------------------------------




--------------------------------------- Iteration      1(  15)  ---------------------------------------


    POTLOK:  cpu time      0.0066: real time      0.0066
    SETDIJ:  cpu time      1.4619: real time      1.4626
    TRIAL :  cpu time      2.2233: real time      2.2247
 BZINTS: Fermi energy:    7.686994;   96.000000 electrons
         Band energy:-0.145195E+04;  BLOECHL correction:   -0.194284
 BZINTS: Fermi energy:    7.793090;   96.000000 electrons
         Band energy:-0.144775E+04;  BLOECHL correction:   -0.191854
    CORREC:  cpu time      2.1306: real time      2.1319
    CHARGE:  cpu time      0.1744: real time      0.1746
    --------------------------------------------
      LOOP:  cpu time      5.9977: real time      6.0020

 eigenvalue-minimisations  :     0
 total energy-change (2. order) :-0.3648766E+01  (-0.2870082E+01)
 number of electron      96.0000002 magnetization      -0.0311439
 augmentation part       53.7814174 magnetization      -0.1664649

 Free energy of the ion-electron system (eV)
  ---------------------------------------------------
  alpha Z        PSCENC =       832.12757875
  Ewald energy   TEWEN  =    -12881.75342006
  -Hartree energ DENC   =     -6469.42567095
  -exchange      EXHF   =         0.00000000
  -V(xc)+E(xc)   XCENC  =       485.87121586
  PAW double counting   =     17790.04798741   -18563.73708041
  entropy T*S    EENTRO =         0.00000000
  eigenvalues    EBANDS =     -1541.53499904
  atomic energy  EATOM  =     20337.61373099
  ---------------------------------------------------
  free energy    TOTEN  =       -10.79065745 eV

  energy without entropy =      -10.79065745  energy(sigma->0) =      -10.79065745


--------------------------------------------------------------------------------------------------------




--------------------------------------- Iteration      1(  16)  ---------------------------------------


    POTLOK:  cpu time      0.0066: real time      0.0066
    SETDIJ:  cpu time      1.4610: real time      1.4615
    TRIAL :  cpu time      2.2279: real time      2.2292
 BZINTS: Fermi energy:    7.327255;   96.000000 electrons
         Band energy:-0.146725E+04;  BLOECHL correction:   -0.187921
 BZINTS: Fermi energy:    7.382390;   96.000000 electrons
         Band energy:-0.146466E+04;  BLOECHL correction:   -0.192444
    CORREC:  cpu time      2.1376: real time      2.1386
    CHARGE:  cpu time      0.1756: real time      0.1757
    --------------------------------------------
      LOOP:  cpu time      6.0094: real time      6.0130

 eigenvalue-minimisations  :     0
 total energy-change (2. order) :-0.2933563E+01  (-0.3135932E+01)
 number of electron      96.0000003 magnetization      -0.2460703
 augmentation part       54.0042981 magnetization      -0.2038782

 Free energy of the ion-electron system (eV)
  ---------------------------------------------------
  alpha Z        PSCENC =       832.12757875
  Ewald energy   TEWEN  =    -12881.75342006
  -Hartree energ DENC   =     -6517.54746146
  -exchange      EXHF   =         0.00000000
  -V(xc)+E(xc)   XCENC  =       487.74017481
  PAW double counting   =     17847.39489631   -18636.57970674
  entropy T*S    EENTRO =         0.00000000
  eigenvalues    EBANDS =     -1482.72001349
  atomic energy  EATOM  =     20337.61373099
  ---------------------------------------------------
  free energy    TOTEN  =       -13.72422089 eV

  energy without entropy =      -13.72422089  energy(sigma->0) =      -13.72422089


--------------------------------------------------------------------------------------------------------




--------------------------------------- Iteration      1(  17)  ---------------------------------------


    POTLOK:  cpu time      0.0066: real time      0.0066
    SETDIJ:  cpu time      1.4632: real time      1.4637
    TRIAL :  cpu time      2.2274: real time      2.2290
 BZINTS: Fermi energy:    7.087932;   96.000000 electrons
         Band energy:-0.147212E+04;  BLOECHL correction:   -0.147424
 BZINTS: Fermi energy:    7.065862;   96.000000 electrons
         Band energy:-0.147267E+04;  BLOECHL correction:   -0.145178
    CORREC:  cpu time      2.1331: real time      2.1344
    CHARGE:  cpu time      0.1741: real time      0.1741
    --------------------------------------------
      LOOP:  cpu time      6.0049: real time      6.0091

 eigenvalue-minimisations  :     0
 total energy-change (2. order) :-0.3161088E+01  (-0.2429862E+01)
 number of electron      96.0000003 magnetization      -0.4423720
 augmentation part       53.8858919 magnetization      -0.2597043

 Free energy of the ion-electron system (eV)
  ---------------------------------------------------
  alpha Z        PSCENC =       832.12757875
  Ewald energy   TEWEN  =    -12881.75342006
  -Hartree energ DENC   =     -6570.13228255
  -exchange      EXHF   =         0.00000000
  -V(xc)+E(xc)   XCENC  =       489.47256571
  PAW double counting   =     17925.52809262   -18721.19416947
  entropy T*S    EENTRO =         0.00000000
  eigenvalues    EBANDS =     -1428.54740451
  atomic energy  EATOM  =     20337.61373099
  ---------------------------------------------------
  free energy    TOTEN  =       -16.88530851 eV

  energy without entropy =      -16.88530851  energy(sigma->0) =      -16.88530851


--------------------------------------------------------------------------------------------------------




--------------------------------------- Iteration      1(  18)  ---------------------------------------


    POTLOK:  cpu time      0.0067: real time      0.0067
    SETDIJ:  cpu time      1.4566: real time      1.4572
    TRIAL :  cpu time      2.2199: real time      2.2208
 BZINTS: Fermi energy:    6.367059;   96.000000 electrons
         Band energy:-0.148086E+04;  BLOECHL correction:   -0.122905
 BZINTS: Fermi energy:    6.389227;   96.000000 electrons
         Band energy:-0.148059E+04;  BLOECHL correction:   -0.122364
    CORREC:  cpu time      2.1301: real time      2.1310
    CHARGE:  cpu time      0.1745: real time      0.1746
    --------------------------------------------
      LOOP:  cpu time      5.9881: real time      5.9916

 eigenvalue-minimisations  :     0
 total energy-change (2. order) :-0.2441742E+01  (-0.2292698E+01)
 number of electron      96.0000003 magnetization      -0.4662134
 augmentation part       53.9326600 magnetization      -0.3353280

 Free energy of the ion-electron system (eV)
  ---------------------------------------------------
  alpha Z        PSCENC =       832.12757875
  Ewald energy   TEWEN  =    -12881.75342006
  -Hartree energ DENC   =     -6552.13010501
  -exchange      EXHF   =         0.00000000
  -V(xc)+E(xc)   XCENC  =       488.54723072
  PAW double counting   =     17875.23044252   -18654.56248004
  entropy T*S    EENTRO =         0.00000000
  eigenvalues    EBANDS =     -1464.40002886
  atomic energy  EATOM  =     20337.61373099
  ---------------------------------------------------
  free energy    TOTEN  =       -19.32705097 eV

  energy without entropy =      -19.32705097  energy(sigma->0) =      -19.32705097


--------------------------------------------------------------------------------------------------------




--------------------------------------- Iteration      1(  19)  ---------------------------------------


    POTLOK:  cpu time      0.0066: real time      0.0066
    SETDIJ:  cpu time      1.4608: real time      1.4613
    TRIAL :  cpu time      2.2312: real time      2.2326
 BZINTS: Fermi energy:    6.102031;   96.000000 electrons
         Band energy:-0.149248E+04;  BLOECHL correction:   -0.080932
 BZINTS: Fermi energy:    6.109430;   96.000000 electrons
         Band energy:-0.149004E+04;  BLOECHL correction:   -0.099870
    CORREC:  cpu time      2.1261: real time      2.1268
    CHARGE:  cpu time      0.1746: real time      0.1746
[...]
  255                    map_scatter                           0.000956               12   9
  256                  map_forward                           0.033733                 24   8
  257                    map_gather                            0.008879               12   9
  258                    m_alltoallv_z                         0.017295               12   9
  259                    map_scatter                           0.007523               12   9
  260            m_sumb_d                              0.002725                        6   5
  261        setdij_                               1.450963                           20   3
  262          fft3d_mpi                             0.484194                         80   4
  263            fftbrc_mpi                            0.434505                       80   5
  264              fftbas_plan_mpi                       0.434448                     80   6
  265                dfftw_execute                         0.294985                  240   7
  266                map_backward                          0.019051                   80   7
  267                  map_gather                            0.003813                 40   8
  268                  m_alltoallv_z                         0.011966                 40   8
  269                  map_scatter                           0.003179                 40   8
  270                map_forward                           0.111647                   80   7
  271                  map_gather                            0.029091                 40   8
  272                  m_alltoallv_z                         0.057432                 40   8
  273                  map_scatter                           0.025012                 40   8
  274          m_sumb_d                              0.003945                         20   4
  275        set_dd_magatom                        0.000005                            1   3
  276        set_dd_paw                            1.411682                            1   3
  277          m_sumb_d                              0.941044                          7   4
  278        strkin                                0.000393                            1   3
  279          m_sumb_d                              0.000023                          1   4
  280        strelo                                0.001173                            1   3
  281          m_sumb_d                              0.000022                          2   4
  282        strnlr                                1.656645                            1   3
  283          rspher_all                            0.086796                          9   4
  284          phaser                                0.478587                        252   4
  285          rpro_isp                              1.083921                        252   4
  286            fftwav_mpi                            0.251770                     8064   5
  287              fftwav                                0.242047                   8064   6
  288                fft3d                                 0.054930                 8064   7
  289            rpromu_acc                            0.367979                     2016   5
  290          m_sumb_d                              0.000012                          1   4
  291        fft3d_mpi                             0.003177                           22   3
  292          fftbrc_mpi                            0.002489                         22   4
  293            fftbas_plan_mpi                       0.002480                       22   5
  294              map_forward                           0.000905                     20   6
  295                map_gather                            0.000195                   10   7
  296                m_alltoallv_z                         0.000123                   10   7
  297                map_scatter                           0.000439                   10   7
  298              map_backward                          0.000968                     24   6
  299                map_gather                            0.000235                   12   7
  300                m_alltoallv_z                         0.000124                   12   7
  301                map_scatter                           0.000437                   12   7
  302        m_sumb_d                              0.000033                            5   3
  303        forhar                                0.000657                            1   3
  304          m_sumb_d                              0.000011                          1   4
  305        strehar                               0.000861                            1   3
  306          m_sumb_d                              0.000005                          1   4
  307        m_bcast_d                             0.000023                            2   3
  308      potlok                                0.020177                              2   2
  309        fft3d_mpi                             0.013014                           36   3
  310          fftbrc_mpi                            0.011145                         36   4
  311            fftbas_plan_mpi                       0.011127                       36   5
  312              map_forward                           0.003093                     40   6
  313                map_gather                            0.001063                   24   7
  314                m_alltoallv_z                         0.000927                   24   7
  315                map_scatter                           0.000925                   24   7
  316              map_backward                          0.002676                     32   6
  317                map_gather                            0.000859                   16   7
  318                m_alltoallv_z                         0.000781                   16   7
  319                map_scatter                           0.000869                   16   7
  320              dfftw_execute                         0.003629                     30   6
  321        m_sumb_d                              0.000026                            5   3
  322        pothar                                0.000779                            2   3
  323          m_sumb_d                              0.000086                          2   4
  324        m_bcast_d                             0.001179                            4   3
  325      potlok_metagga                        0.000000                              1   2
  326      set_dd_magatom                        0.000004                              1   2
  327      set_dd_paw                            1.417739                              1   2
  328        m_sumb_d                              0.948560                            7   3
  329      augmentation_charge                   0.067699                              1   2
  330        fft3d_mpi                             0.016866                            2   3
  331          fftbrc_mpi                            0.014480                          2   4
  332            fftbas_plan_mpi                       0.014479                        2   5
  333              dfftw_execute                         0.008987                      6   6
  334              map_backward                          0.005345                      4   6
  335                map_gather                            0.001365                    2   7
  336                m_alltoallv_z                         0.002712                    2   7
  337                map_scatter                           0.001260                    2   7
 
 Flat profile
 ============
 
             routine name                   CPU           calls
 ---------------------------------------------------------------
 m_sumb_d                              105.313294       58574
 set_dd_paw                             48.591223         104
 edwav                                  32.957561         101
 eccp                                   19.621829      182784
 rpro1_acc                              16.261378       43904
 init_acc                               11.864110           1
 racc0_acc                              10.304099       43904
 m_alltoall_d                           10.287503     1644734
 redis_pw                                9.465037      234774
 densta                                  8.259476         113
 total_time                              7.218600           1
 phaser                                  6.354972        3388
 setdij_                                 6.289031         130
 augmentation_charge                     5.301279         103
 redis_proj                              4.920946      250032
 fftwav                                  4.804501      246572
 overl                                   4.661577       83100
 soft_charge                             4.462433         102
 eddav                                   3.729247           5
 lapack                                  3.598022        8105
 dfftw_execute                           2.894233        2868
 raccmu_                                 2.722641        8105
 fft3d                                   2.499370      351486
 acc_init_cublas                         2.438173           1
 fftext_mpi                              2.221370      104914
 pw_charge                               1.890243       71688
 depsum                                  1.493073         102
 eddiag                                  1.412030          53
 lincom                                  1.382055       17360
 m_alltoallv_z                           1.083825        4068
 orthch                                  0.851017         102
 choleski                                0.797183        5712
 acc_init_cusolver                       0.792726           1
 hamilt_local                            0.784892       44800
 orth1                                   0.751202       57803
 rpromu_acc                              0.664604        8777
 fft3d_mpi                               0.663748      108570
 kinhamil                                0.651084       61010
 vhamil                                  0.647703       61010
 rpro_isp                                0.643936         364
 map_scatter                             0.441958        4068
 map_gather                              0.438471        4068
 set_charge                              0.420015         102
 w1_dscal                                0.326881       43904
 fftwav_mpi                              0.308260      246572
 elmin_all                               0.307915           1
 potlok                                  0.279974         104
 m_bcast_z                               0.251034       11689
 w1_copy                                 0.234600       48630
 racc0mu_acc                             0.232766        8105
 hamiltmu                                0.184438        8105
 fftbas_plan_mpi                         0.184090        3656
 setup_precond                           0.160851        4480
 m_bcast_d                               0.136908       16423
 rspher_all                              0.130272          14
 overl_mu                                0.122141        8105
 acc_cufft_makeplan                      0.118181          19
 ggemm                                   0.110712       10345
 newband                                 0.100309        8385
 sphpro_fast                             0.068775           2
 apply_precond                           0.064575       11730
 proall                                  0.046651           1
 map_backward                            0.019614        3856
 map_forward                             0.018841        3456
 force_and_stress                        0.008959           1
 pothar                                  0.008076         104
 strnlr                                  0.007329           1
 w1_projall                              0.006097        5865
 redis_pw_all                            0.005745         101
 inisym                                  0.004370           1
 fft_gq                                  0.003154         102
 fornlr                                  0.002508           1
 stufak                                  0.002438           1
 fftbrc_mpi                              0.002020        3656
 truncate_high_frequency_w1              0.001559       20690
 strelo                                  0.001151           1
 strehar                                 0.000856           1
 forloc                                  0.000676           1
 forhar                                  0.000646           1
 strkin                                  0.000370           1
 fewald                                  0.000332           1
 brgrid                                  0.000124           1
 redis_pw_over_bands                     0.000098         102
 rsp                                     0.000096           1
 fordep                                  0.000053           1
 crpa_reader                             0.000027           1
 posmap                                  0.000017           2
 rcp                                     0.000015           1
 potlok_metagga                          0.000011         103
 shift_bands_between_low_high            0.000011          56
 set_dd_magatom                          0.000009           2
 acc_cufft_makeplans                     0.000008           3
 vectorpot                               0.000006           1
 rotate_active_occupied_orbital          0.000001           1
 ---------------------------------------------------------------
  summed up times     356.3162209987640     
 
 Accumulative profile
 ====================
 
             routine name                   CPU           calls
 ---------------------------------------------------------------
 total_time                            356.316221           1
 elmin_all                             322.681818           1
 set_dd_paw                            145.581224         104
 edwav                                 122.557063         101
 m_sumb_d                              105.313294       58574
 eccp                                   19.621829      182784
 eddav                                  18.524892           5
 set_charge                             17.911220         102
 rpro1_acc                              16.261378       43904
 redis_pw                               12.555484      234774
 redis_proj                             12.118002      250032
 init_acc                               11.864110           1
 racc0_acc                              10.304099       43904
 m_alltoall_d                           10.287503     1644734
 setdij_                                 9.415938         130
 soft_charge                             8.816337         102
 densta                                  8.259476         113
 augmentation_charge                     7.161207         103
 fftwav_mpi                              6.834388      246572
 orthch                                  6.793936         102
 fftwav                                  6.526128      246572
 fft3d_mpi                               6.524543      108570
 phaser                                  6.354972        3388
 eddiag                                  6.223709          53
 force_and_stress                        5.522000           1
 fftbrc_mpi                              5.083052        3656
 fftbas_plan_mpi                         5.081033        3656
 overl                                   4.661577       83100
 lapack                                  3.598022        8105
 hamiltmu                                3.595963        8105
 hamilt_local                            3.311000       44800
 raccmu_                                 3.077549        8105
 fftext_mpi                              3.030532      104914
 dfftw_execute                           2.894233        2868
 fft3d                                   2.499370      351486
 acc_init_cublas                         2.438173           1
 kinhamil                                2.212380       61010
 pw_charge                               1.890243       71688
 strnlr                                  1.656645           1
 depsum                                  1.507629         102
 redis_pw_over_bands                     1.502396         102
 redis_pw_all                            1.502298         101
 rpro_isp                                1.491050         364
 lincom                                  1.382055       17360
 m_alltoallv_z                           1.083825        4068
 map_forward                             1.034190        3456
 newband                                 0.975854        8385
 map_backward                            0.968519        3856
 potlok                                  0.881385         104
 choleski                                0.797183        5712
 acc_init_cusolver                       0.792726           1
 orth1                                   0.751202       57803
 rpromu_acc                              0.664604        8777
 vhamil                                  0.647703       61010
 fornlr                                  0.551526           1
 map_scatter                             0.441958        4068
 map_gather                              0.438471        4068
 fordep                                  0.435221           1
 w1_dscal                                0.326881       43904
 m_bcast_z                               0.251034       11689
 w1_copy                                 0.234600       48630
 racc0mu_acc                             0.232766        8105
 w1_projall                              0.173408        5865
 setup_precond                           0.160851        4480
 proall                                  0.144535           1
 m_bcast_d                               0.136908       16423
 rspher_all                              0.130272          14
 overl_mu                                0.122141        8105
 acc_cufft_makeplans                     0.118188           3
 acc_cufft_makeplan                      0.118181          19
 ggemm                                   0.110712       10345
 fft_gq                                  0.107077         102
 sphpro_fast                             0.070875           2
 apply_precond                           0.064575       11730
 pothar                                  0.009011         104
 inisym                                  0.004387           1
 stufak                                  0.002438           1
 truncate_high_frequency_w1              0.001559       20690
 strelo                                  0.001173           1
 strehar                                 0.000861           1
 fewald                                  0.000699           1
 forloc                                  0.000683           1
 forhar                                  0.000657           1
 strkin                                  0.000393           1
 brgrid                                  0.000124           1
 rsp                                     0.000096           1
 crpa_reader                             0.000027           1
 posmap                                  0.000017           2
 rcp                                     0.000015           1
 potlok_metagga                          0.000011         103
 shift_bands_between_low_high            0.000011          56
 set_dd_magatom                          0.000009           2
 vectorpot                               0.000006           1
 rotate_active_occupied_orbital          0.000001           1
 ---------------------------------------------------------------
 
Profiling took   0.449318  0.308937  0.003394  0.003311 seconds
Profiling took   0.342811 seconds
