 vasp.6.3.2 27Jun22 (build Jul  3 2023 11:46:21) complex                         
 executed on    LinuxNV_CrayMPICH date 2024.04.22  03:19:18
 running on    4 total cores
 distrk:  each k-point on    4 cores,    1 groups
 distr:  one band on NCORE=   1 cores,    4 groups


--------------------------------------------------------------------------------------------------------


 INCAR:
   ALGO = Fast
   EDIFF = 0.0014
   EFIELD_PEAD = 0.0 0.0 0.0
   ENCUT = 520.0
   IBRION = 2
   ICHARG = 1
   ISIF = 3
   ISMEAR = 0
   ISPIN = 2
   ISTART = 1
   LCALCEPS = False
   LCALCPOL = False
   LEFG = False
   LORBIT = 11
   LPEAD = False
   LREAL = Auto
   LWAVE = False
   MAGMOM = 4*7.0 24*0.6
   NELM = 1000
   NSW = 99
   PREC = accurate
   SIGMA = 0.2

 POTCAR:    PAW_PBE Eu 23Dec2003                  
 POTCAR:    PAW_PBE Yb_2 06Sep2000                
 POTCAR:    PAW_PBE Se 06Sep2000                  
 POTCAR:    PAW_PBE Eu 23Dec2003                  
   SHA256 =  ed303d27e7c5191953f9b15539336e6f36d9037c1d2e92e80c13d733697cb93d Eu/POTCAR             
   COPYR  = (c) Copyright 23Dec2003 Georg Kresse                                                    
   COPYR  = This file is part of the software VASP. Any use, copying, and all other rights are regul
   COPYR  = If you do not have a valid VASP license, you may not use, copy or distribute this file. 
   VRHFIN =Eu : [core=Kr4d]                                                                         
   LEXCH  = PE                                                                                      
   EATOM  =  2619.8085 eV,  192.5505 Ry                                                             
                                                                                                    
   TITEL  = PAW_PBE Eu 23Dec2003                                                                    
   LULTRA =        F    use ultrasoft PP ?                                                          
   IUNSCR =        1    unscreen: 0-lin 1-nonlin 2-no                                               
   RPACOR =    2.300    partial core radius                                                         
   POMASS =  151.965; ZVAL   =   17.000    mass and valenz                                          
   RCORE  =    2.800    outmost cutoff radius                                                       
   RWIGS  =    2.800; RWIGS  =    1.482    wigner-seitz radius (au A)                               
   ENMAX  =  249.668; ENMIN  =  187.251 eV                                                          
   RCLOC  =    2.308    cutoff for local pot                                                        
   LCOR   =        T    correct aug charges                                                         
   LPAW   =        T    paw PP                                                                      
   EAUG   =  549.628                                                                                
   DEXC   =    0.000                                                                                
   RMAX   =    2.870    core radius for proj-oper                                                   
   RAUG   =    1.300    factor for augmentation sphere                                              
   RDEP   =    2.887    radius for radial grids                                                     
   RDEPT  =    2.221    core radius for aug-charge                                                  
                                                                                                    
   Atomic configuration                                                                             
   14 entries                                                                                       
     n  l   j            E        occ.                                                              
     1  0  0.50    -48354.7667   2.0000                                                             
     2  0  0.50     -7939.6472   2.0000                                                             
     2  1  1.50     -7072.6637   6.0000                                                             
     3  0  0.50     -1747.1875   2.0000                                                             
     3  1  1.50     -1477.5221   6.0000                                                             
     3  2  2.50     -1117.4686  10.0000                                                             
     4  0  0.50      -346.8682   2.0000                                                             
     4  1  1.50      -258.1962   6.0000                                                             
     4  2  2.50      -134.7724  10.0000                                                             
     5  0  0.50       -44.6510   2.0000                                                             
     6  0  0.50        -3.6227   2.0000                                                             
     5  1  1.50       -23.7639   6.0000                                                             
     5  2  2.50        -1.3130   0.0000                                                             
     4  3  2.50        -2.7310   7.0000                                                             
   Description                                                                                      
     l       E           TYP  RCUT    TYP  RCUT                                                     
     0    -44.6510453     23  2.400                                                                 
     0     -3.6226685     23  2.400                                                                 
     1    -23.7638687     23  2.400                                                                 
     1     27.2116520     23  2.400                                                                 
     2     -1.3129622     23  2.500                                                                 
     2     13.6058260     23  2.500                                                                 
     3     -2.7309948     23  2.800                                                                 
     3     -3.4014565     23  2.800                                                                 
  local pseudopotential read in
  partial core-charges read in
  partial kinetic energy density read in
  atomic valenz-charges read in
  non local Contribution for L=            0  read in
    real space projection operators read in
  non local Contribution for L=            0  read in
    real space projection operators read in
  non local Contribution for L=            1  read in
    real space projection operators read in
  non local Contribution for L=            1  read in
    real space projection operators read in
  non local Contribution for L=            2  read in
    real space projection operators read in
  non local Contribution for L=            2  read in
    real space projection operators read in
  non local Contribution for L=            3  read in
    real space projection operators read in
  non local Contribution for L=            3  read in
    real space projection operators read in
    PAW grid and wavefunctions read in
 
   number of l-projection  operators is LMAX  =            8
   number of lm-projection operators is LMMAX =           32
 
 POTCAR:    PAW_PBE Yb_2 06Sep2000                
   SHA256 =  447ea688f1b29a5c5d62bbadb2b3e4a6902763696c282b59e85a911f7e119eeb Yb_2/POTCAR           
   COPYR  = (c) Copyright 06Sep2000 Georg Kresse                                                    
   COPYR  = This file is part of the software VASP. Any use, copying, and all other rights are regul
   COPYR  = If you do not have a valid VASP license, you may not use, copy or distribute this file. 
   VRHFIN =Yb : [core=Xe4]                                                                          
   LEXCH  = PE                                                                                      
   EATOM  =   572.3552 eV,   42.0669 Ry                                                             
                                                                                                    
   TITEL  = PAW_PBE Yb_2 06Sep2000                                                                  
   LULTRA =        F    use ultrasoft PP ?                                                          
   IUNSCR =        1    unscreen: 0-lin 1-nonlin 2-no                                               
   RPACOR =    2.400    partial core radius                                                         
   POMASS =  173.040; ZVAL   =    8.000    mass and valenz                                          
   RCORE  =    3.100    outmost cutoff radius                                                       
   RWIGS  =    3.300; RWIGS  =    1.746    wigner-seitz radius (au A)                               
   ENMAX  =  112.578; ENMIN  =   84.433 eV                                                          
   RCLOC  =    2.410    cutoff for local pot                                                        
   LCOR   =        T    correct aug charges                                                         
   LPAW   =        T    paw PP                                                                      
   EAUG   =  301.012                                                                                
   DEXC   =    0.000                                                                                
   RMAX   =    3.170    core radius for proj-oper                                                   
   RAUG   =    1.300    factor for augmentation sphere                                              
   RDEP   =    3.215    radius for radial grids                                                     
   RDEPT  =    2.473    core radius for aug-charge                                                  
                                                                                                    
   Atomic configuration                                                                             
   14 entries                                                                                       
     n  l   j            E        occ.                                                              
     1  0  0.50    -61220.9726   2.0000                                                             
     2  0  0.50    -10371.0425   2.0000                                                             
     2  1  1.50     -9138.3712   6.0000                                                             
     3  0  0.50     -2337.6588   2.0000                                                             
     3  1  1.50     -1966.2680   6.0000                                                             
     3  2  2.50     -1514.8100  10.0000                                                             
     4  0  0.50      -459.9070   2.0000                                                             
     4  1  1.50      -338.0537   6.0000                                                             
     4  2  2.50      -177.8445  10.0000                                                             
     4  3  2.50        -3.0334  14.0000                                                             
     5  0  0.50       -54.9037   2.0000                                                             
     6  0  0.50        -3.9192   2.0000                                                             
     5  1  1.50       -27.4093   6.0000                                                             
     5  2  2.50        -2.0436   0.0000                                                             
   Description                                                                                      
     l       E           TYP  RCUT    TYP  RCUT                                                     
     0     -3.9192173     23  3.100                                                                 
     0     13.6058260     23  3.100                                                                 
     1    -27.4092538     23  3.100                                                                 
     1    -28.7698364     23  3.100                                                                 
     2     -2.0435951     23  3.100                                                                 
     2      2.2720029     23  3.100                                                                 
  local pseudopotential read in
  partial core-charges read in
  partial kinetic energy density read in
  atomic valenz-charges read in
  non local Contribution for L=            0  read in
    real space projection operators read in
  non local Contribution for L=            0  read in
    real space projection operators read in
  non local Contribution for L=            1  read in
    real space projection operators read in
  non local Contribution for L=            1  read in
    real space projection operators read in
  non local Contribution for L=            2  read in
    real space projection operators read in
  non local Contribution for L=            2  read in
    real space projection operators read in
    PAW grid and wavefunctions read in
 
   number of l-projection  operators is LMAX  =            6
   number of lm-projection operators is LMMAX =           18
 
 POTCAR:    PAW_PBE Se 06Sep2000                  
   SHA256 =  eabb916e6b4c819dc065ce039373bc328651da483898f08fb9e49c498452bf12 Se/POTCAR             
   COPYR  = (c) Copyright 06Sep2000 Georg Kresse                                                    
   COPYR  = This file is part of the software VASP. Any use, copying, and all other rights are regul
   COPYR  = If you do not have a valid VASP license, you may not use, copy or distribute this file. 
   VRHFIN =Se: s2p4                                                                                 
   LEXCH  = PE                                                                                      
   EATOM  =   257.1286 eV,   18.8984 Ry                                                             
                                                                                                    
   TITEL  = PAW_PBE Se 06Sep2000                                                                    
   LULTRA =        F    use ultrasoft PP ?                                                          
   IUNSCR =        1    unscreen: 0-lin 1-nonlin 2-no                                               
   RPACOR =    1.900    partial core radius                                                         
   POMASS =   78.960; ZVAL   =    6.000    mass and valenz                                          
   RCORE  =    2.100    outmost cutoff radius                                                       
   RWIGS  =    2.200; RWIGS  =    1.164    wigner-seitz radius (au A)                               
   ENMAX  =  211.555; ENMIN  =  158.666 eV                                                          
   ICORE  =        3    local potential                                                             
   LCOR   =        T    correct aug charges                                                         
   LPAW   =        T    paw PP                                                                      
   EAUG   =  446.842                                                                                
   DEXC   =    0.000                                                                                
   RMAX   =    2.147    core radius for proj-oper                                                   
   RAUG   =    1.300    factor for augmentation sphere                                              
   RDEP   =    2.177    radius for radial grids                                                     
   RDEPT  =    1.928    core radius for aug-charge                                                  
                                                                                                    
   Atomic configuration                                                                             
   10 entries                                                                                       
     n  l   j            E        occ.                                                              
     1  0  0.50    -12503.4787   2.0000                                                             
     2  0  0.50     -1606.9547   2.0000                                                             
     2  1  1.50     -1413.3140   6.0000                                                             
     3  0  0.50      -213.4885   2.0000                                                             
     3  1  1.50      -152.9538   6.0000                                                             
     3  2  2.50       -53.1221  10.0000                                                             
     4  0  0.50       -17.2865   2.0000                                                             
     4  1  0.50        -6.5110   4.0000                                                             
     4  2  2.50        -6.8029   0.0000                                                             
     4  3  2.50        -6.8029   0.0000                                                             
   Description                                                                                      
     l       E           TYP  RCUT    TYP  RCUT                                                     
     0    -17.2865377     23  2.100                                                                 
     0    -15.3094411     23  2.100                                                                 
     1     -6.5110275     23  2.100                                                                 
     1     -0.0695192     23  2.100                                                                 
     2     -6.8029130     23  2.100                                                                 
     3     -1.3605826      7  2.100                                                                 
  local pseudopotential read in
  partial core-charges read in
  partial kinetic energy density read in
  atomic valenz-charges read in
  non local Contribution for L=            0  read in
    real space projection operators read in
  non local Contribution for L=            0  read in
    real space projection operators read in
  non local Contribution for L=            1  read in
    real space projection operators read in
  non local Contribution for L=            1  read in
    real space projection operators read in
  non local Contribution for L=            2  read in
    real space projection operators read in
    PAW grid and wavefunctions read in
 
   number of l-projection  operators is LMAX  =            5
   number of lm-projection operators is LMMAX =           13
 
 Optimization of the real space projectors (new method)

 maximal supplied QI-value         = 13.42
 optimisation between [QCUT,QGAM] = [ 11.67, 23.35] = [ 38.16,152.62] Ry 
 Optimized for a Real-space Cutoff    1.63 Angstroem

   l    n(q)    QCUT    max X(q) W(low)/X(q) W(high)/X(q)  e(spline) 
   0     11    11.673    10.400    0.14E-04    0.18E-05    0.24E-07
   0     11    11.673    10.768    0.21E-04    0.32E-05    0.49E-07
   1     11    11.673     4.094    0.40E-05    0.13E-04    0.93E-07
   1     11    11.673     4.009    0.11E-04    0.46E-04    0.33E-06
   2     10    11.673    29.030    0.79E-04    0.60E-04    0.70E-06
   2     10    11.673    19.941    0.80E-04    0.60E-04    0.71E-06
   3     10    11.673    88.889    0.23E-03    0.29E-03    0.30E-06
   3     10    11.673    76.102    0.23E-03    0.30E-03    0.30E-06
 Optimization of the real space projectors (new method)

 maximal supplied QI-value         = 12.09
 optimisation between [QCUT,QGAM] = [ 11.61, 23.34] = [ 37.75,152.57] Ry 
 Optimized for a Real-space Cutoff    1.89 Angstroem

   l    n(q)    QCUT    max X(q) W(low)/X(q) W(high)/X(q)  e(spline) 
   0     13    11.610    37.655    0.45E-04    0.19E-04    0.34E-06
   0     13    11.610    17.791    0.29E-04    0.15E-04    0.27E-06
   1     13    11.610    36.143    0.15E-04    0.51E-06    0.99E-06
   1     13    11.610    36.445    0.16E-04    0.54E-06    0.10E-05
   2     12    11.610    14.662    0.21E-03    0.42E-03    0.57E-05
   2     12    11.610    15.811    0.17E-03    0.35E-03    0.47E-05
 Optimization of the real space projectors (new method)

 maximal supplied QI-value         = 17.95
 optimisation between [QCUT,QGAM] = [ 11.67, 23.34] = [ 38.13,152.52] Ry 
 Optimized for a Real-space Cutoff    1.25 Angstroem

   l    n(q)    QCUT    max X(q) W(low)/X(q) W(high)/X(q)  e(spline) 
   0      9    11.669   133.320    0.17E-03    0.44E-04    0.69E-07
   0      9    11.669   111.601    0.18E-03    0.46E-04    0.72E-07
   1      8    11.669    47.222    0.22E-03    0.37E-03    0.10E-06
   1      8    11.669    33.775    0.22E-03    0.36E-03    0.10E-06
   2      8    11.669     3.720    0.19E-03    0.46E-04    0.50E-07
  PAW_PBE Eu 23Dec2003                  :
 energy of atom  1       EATOM=-2619.8085
 kinetic energy error for atom=    0.0015 (will be added to EATOM!!)
  PAW_PBE Yb_2 06Sep2000                :
 energy of atom  2       EATOM= -572.3552
 kinetic energy error for atom=    0.0001 (will be added to EATOM!!)
  PAW_PBE Se 06Sep2000                  :
 energy of atom  3       EATOM= -257.1286
 kinetic energy error for atom=    0.0007 (will be added to EATOM!!)
 
 
 POSCAR: Yb8 Eu4 Se16
  positions in direct lattice
  No initial velocities read in
 exchange correlation table for  LEXCH =        8
   RHO(1)=    0.500       N(1)  =     2000
   RHO(2)=  100.500       N(2)  =     4000

 VTST: version 4.2, (08/11/21)

 CHAIN: initializing optimizer
 
 OPT: Using VASP Conjugate-Gradient optimizer
 CHAIN: Read ICHAIN             0
 
 POSCAR: Yb8 Eu4 Se16
  positions in direct lattice
  No initial velocities read in
 


--------------------------------------------------------------------------------------------------------


 ion  position               nearest neighbor table
   1  0.250  0.260  0.830-  19 3.09  19 3.09  28 3.10  28 3.10  20 3.15  20 3.15
   2  0.750  0.240  0.330-  16 3.09  16 3.09  21 3.10  21 3.10  23 3.15  23 3.15
   3  0.250  0.760  0.670-  13 3.09  13 3.09  14 3.10  14 3.10  15 3.15  15 3.15
   4  0.750  0.740  0.170-  24 3.09  24 3.09  27 3.10  27 3.10  26 3.15  26 3.15
   5  0.250  0.413  0.097-  16 2.85  22 2.91  22 2.91  26 2.92  20 3.01  20 3.01
   6  0.250  0.433  0.608-  25 2.88  19 2.94  19 2.94  21 2.99  14 2.99  14 2.99
   7  0.750  0.067  0.108-  18 2.88  16 2.94  16 2.94  28 2.99  27 2.99  27 2.99
   8  0.750  0.567  0.392-  22 2.88  24 2.94  24 2.94  14 2.99  21 2.99  21 2.99
   9  0.750  0.587  0.903-  13 2.85  25 2.91  25 2.91  20 2.92  26 3.01  26 3.01
  10  0.750  0.087  0.597-  19 2.85  17 2.91  17 2.91  15 2.92  23 3.01  23 3.01
  11  0.250  0.933  0.892-  17 2.88  13 2.94  13 2.94  27 2.99  28 2.99  28 2.99
  12  0.250  0.913  0.403-  24 2.85  18 2.91  18 2.91  23 2.92  15 3.01  15 3.01
  13  0.750  0.794  0.815-   9 2.85  11 2.94  11 2.94   3 3.09   3 3.09
  14  0.750  0.605  0.586-   8 2.99   6 2.99   6 2.99   3 3.10   3 3.10
  15  0.750  0.858  0.537-  10 2.92  12 3.01  12 3.01   3 3.15   3 3.15
  16  0.250  0.206  0.185-   5 2.85   7 2.94   7 2.94   2 3.09   2 3.09
  17  0.250  0.024  0.718-  11 2.88  10 2.91  10 2.91
  18  0.750  0.976  0.282-   7 2.88  12 2.91  12 2.91
  19  0.750  0.294  0.685-  10 2.85   6 2.94   6 2.94   1 3.09   1 3.09
  20  0.750  0.358  0.963-   9 2.92   5 3.01   5 3.01   1 3.15   1 3.15
  21  0.250  0.395  0.414-   6 2.99   8 2.99   8 2.99   2 3.10   2 3.10
  22  0.750  0.476  0.218-   8 2.88   5 2.91   5 2.91
  23  0.250  0.142  0.463-  12 2.92  10 3.01  10 3.01   2 3.15   2 3.15
  24  0.250  0.706  0.315-  12 2.85   8 2.94   8 2.94   4 3.09   4 3.09
  25  0.250  0.524  0.782-   6 2.88   9 2.91   9 2.91
  26  0.250  0.642  0.037-   5 2.92   9 3.01   9 3.01   4 3.15   4 3.15
  27  0.250  0.895  0.086-  11 2.99   7 2.99   7 2.99   4 3.10   4 3.10
  28  0.750  0.105  0.914-   7 2.99  11 2.99  11 2.99   1 3.10   1 3.10
 
  LATTYP: Found a simple orthorhombic cell.
 ALAT       =     4.2202669400
 B/A-ratio  =     2.8679785170
 C/A-ratio  =     3.6109475317
  
  Lattice vectors:
  
 A1 = (   4.2202669400,   0.0000000000,   0.0000000000)
 A2 = (   0.0000000000,  12.1036349200,   0.0000000000)
 A3 = (   0.0000000000,   0.0000000000,  15.2391624900)


Analysis of symmetry for initial positions (statically):
=====================================================================
 Subroutine PRICEL returns:
 Original cell was already a primitive cell.
 

 Routine SETGRP: Setting up the symmetry group for a 
 simple orthorhombic supercell.


 Subroutine GETGRP returns: Found  8 space group operations
 (whereof  2 operations were pure point group operations)
 out of a pool of  8 trial point group operations.


The static configuration has the point symmetry S_2 .
 The point group associated with its full space group is D_2h.


Analysis of symmetry for dynamics (positions and initial velocities):
=====================================================================
 Subroutine PRICEL returns:
 Original cell was already a primitive cell.
 

 Routine SETGRP: Setting up the symmetry group for a 
 simple orthorhombic supercell.


 Subroutine GETGRP returns: Found  8 space group operations
 (whereof  2 operations were pure point group operations)
 out of a pool of  8 trial point group operations.


The dynamic configuration has the point symmetry S_2 .
 The point group associated with its full space group is D_2h.


Analysis of structural, dynamic, and magnetic symmetry:
=====================================================================
 Subroutine PRICEL returns:
 Original cell was already a primitive cell.
 

 Routine SETGRP: Setting up the symmetry group for a 
 simple orthorhombic supercell.


 Subroutine GETGRP returns: Found  8 space group operations
 (whereof  2 operations were pure point group operations)
 out of a pool of  8 trial point group operations.


The overall configuration has the point symmetry S_2 .
 The point group associated with its full space group is D_2h.


 Subroutine INISYM returns: Found  8 space group operations
 (whereof  2 operations are pure point group operations),
 and found     1 'primitive' translations


----------------------------------------------------------------------------------------

                                     Primitive cell                                     

  volume of cell :     778.4251

  direct lattice vectors                    reciprocal lattice vectors
     4.220266940  0.000000000  0.000000000     0.236951836  0.000000000  0.000000000
     0.000000000 12.103634920  0.000000000     0.000000000  0.082619809  0.000000000
     0.000000000  0.000000000 15.239162490     0.000000000  0.000000000  0.065620404

  length of vectors
     4.220266940 12.103634920 15.239162490     0.236951836  0.082619809  0.065620404

  position of ions in fractional coordinates (direct lattice)
     0.250000000  0.260321110  0.830488750
     0.750000000  0.239678890  0.330488750
     0.250000000  0.760321110  0.669511250
     0.750000000  0.739678890  0.169511250
     0.250000000  0.412536110  0.096577140
     0.250000000  0.432646830  0.608004310
     0.750000000  0.067353170  0.108004310
     0.750000000  0.567353170  0.391995690
     0.750000000  0.587463890  0.903422860
     0.750000000  0.087463890  0.596577140
     0.250000000  0.932646830  0.891995690
     0.250000000  0.912536110  0.403422860
     0.750000000  0.794441450  0.814720720
     0.750000000  0.605368470  0.585741470
     0.750000000  0.858000040  0.537417050
     0.250000000  0.205558550  0.185279280
     0.250000000  0.024332010  0.717856970
     0.750000000  0.975667990  0.282143030
     0.750000000  0.294441450  0.685279280
     0.750000000  0.358000040  0.962582950
     0.250000000  0.394631530  0.414258530
     0.750000000  0.475667990  0.217856970
     0.250000000  0.141999960  0.462582950
     0.250000000  0.705558550  0.314720720
     0.250000000  0.524332010  0.782143030
     0.250000000  0.641999960  0.037417050
     0.250000000  0.894631530  0.085741470
     0.750000000  0.105368470  0.914258530

  ion indices of the primitive-cell ions
   primitive index   ion index
                 1           1
                 2           2
                 3           3
                 4           4
                 5           5
                 6           6
                 7           7
                 8           8
                 9           9
                10          10
                11          11
                12          12
                13          13
                14          14
                15          15
                16          16
                17          17
                18          18
                19          19
                20          20
                21          21
                22          22
                23          23
                24          24
                25          25
                26          26
                27          27
                28          28

----------------------------------------------------------------------------------------

 
 
 KPOINTS: Kpoints from vasprun.xml                

Automatic generation of k-mesh.
 Grid dimensions read from file:
 generate k-points for:    7    2    2

 Generating k-lattice:

  Cartesian coordinates                     Fractional coordinates (reciprocal lattice)
     0.033850262  0.000000000  0.000000000     0.142857143  0.000000000  0.000000000
     0.000000000  0.041309904  0.000000000     0.000000000  0.500000000  0.000000000
     0.000000000  0.000000000  0.032810202     0.000000000  0.000000000  0.500000000

  Length of vectors
     0.033850262  0.041309904  0.032810202

  Shift w.r.t. Gamma in fractional coordinates (k-lattice)
     0.000000000  0.500000000  0.500000000

 
 Subroutine IBZKPT returns following result:
 ===========================================
 
 Found      4 irreducible k-points:
 
 Following reciprocal coordinates:
            Coordinates               Weight
  0.000000  0.250000  0.250000      4.000000
  0.142857  0.250000  0.250000      8.000000
  0.285714  0.250000  0.250000      8.000000
  0.428571  0.250000  0.250000      8.000000
 
 Following cartesian coordinates:
            Coordinates               Weight
  0.000000  0.020655  0.016405      4.000000
  0.033850  0.020655  0.016405      8.000000
  0.067701  0.020655  0.016405      8.000000
  0.101551  0.020655  0.016405      8.000000
 


--------------------------------------------------------------------------------------------------------




 Dimension of arrays:
   k-points           NKPTS =      4   k-points in BZ     NKDIM =      4   number of bands    NBANDS=    160
   number of dos      NEDOS =    301   number of ions     NIONS =     28
   non local maximal  LDIM  =      8   non local SUM 2l+1 LMDIM =     32
   total plane-waves  NPLWV = 345600
   max r-space proj   IRMAX =  12533   max aug-charges    IRDMAX=  35214
   dimension x,y,z NGX =    32 NGY =   90 NGZ =  120
   dimension x,y,z NGXF=    64 NGYF=  180 NGZF=  240
   support grid    NGXF=    64 NGYF=  180 NGZF=  240
   ions per type =               4   8  16
   NGX,Y,Z   is equivalent  to a cutoff of  12.61, 12.36, 13.09 a.u.
   NGXF,Y,Z  is equivalent  to a cutoff of  25.21, 24.72, 26.18 a.u.

 SYSTEM =  unknown system                          
 POSCAR =  Yb8 Eu4 Se16                            

 Startparameter for this run:
   NWRITE =      2    write-flag & timer
   PREC   = accura    normal or accurate (medium, high low for compatibility)
   ISTART =      0    job   : 0-new  1-cont  2-samecut
   ICHARG =      1    charge: 1-file 2-atom 10-const
   ISPIN  =      2    spin polarized calculation?
   LNONCOLLINEAR =      F non collinear calculations
   LSORBIT =      F    spin-orbit coupling
   INIWAV =      1    electr: 0-lowe 1-rand  2-diag
   LASPH  =      F    aspherical Exc in radial PAW
 Electronic Relaxation 1
   ENCUT  =  520.0 eV  38.22 Ry    6.18 a.u.   7.85 22.50 28.33*2*pi/ulx,y,z
   ENINI  =  520.0     initial cutoff
   ENAUG  =  549.6 eV  augmentation charge cutoff
   NELM   =   1000;   NELMIN=  2; NELMDL=  0     # of ELM steps 
   EDIFF  = 0.1E-02   stopping-criterion for ELM
   LREAL  =      T    real-space projection
   NLSPLINE    = F    spline interpolate recip. space projectors
   LCOMPAT=      F    compatible to vasp.4.4
   GGA_COMPAT  = T    GGA compatible to vasp.4.4-vasp.4.6
   LMAXPAW     = -100 max onsite density
   LMAXMIX     =    2 max onsite mixed and CHGCAR
   VOSKOWN=      0    Vosko Wilk Nusair interpolation
   ROPT   =   -0.00025  -0.00025  -0.00025
 Ionic relaxation
   EDIFFG = 0.1E-01   stopping-criterion for IOM
   NSW    =     99    number of steps for IOM
   NBLOCK =      1;   KBLOCK =     99    inner block; outer block 
   IBRION =      2    ionic relax: 0-MD 1-quasi-New 2-CG
   NFREE  =      1    steps in history (QN), initial steepest desc. (CG)
   ISIF   =      3    stress and relaxation
   IWAVPR =     11    prediction:  0-non 1-charg 2-wave 3-comb
   ISYM   =      2    0-nonsym 1-usesym 2-fastsym
   LCORR  =      T    Harris-Foulkes like correction to forces

   POTIM  = 0.5000    time-step for ionic-motion
   TEIN   =    0.0    initial temperature
   TEBEG  =    0.0;   TEEND  =   0.0 temperature during run
   SMASS  =  -3.00    Nose mass-parameter (am)
   estimated Nose-frequenzy (Omega)   =  0.10E-29 period in steps = 0.13E+47 mass=  -0.407E-27a.u.
   SCALEE = 1.0000    scale energy and forces
   NPACO  =    256;   APACO  = 10.0  distance and # of slots for P.C.
   PSTRESS=    0.0 pullay stress

  Mass of Ions in am
   POMASS = 151.97173.04 78.96
  Ionic Valenz
   ZVAL   =  17.00  8.00  6.00
  Atomic Wigner-Seitz radii
   RWIGS  =  -1.00 -1.00 -1.00
  virtual crystal weights 
   VCA    =   1.00  1.00  1.00
   NELECT =     228.0000    total number of electrons
   NUPDOWN=      -1.0000    fix difference up-down

 DOS related values:
   EMIN   =  10.00;   EMAX   =-10.00  energy-range for DOS
   EFERMI =   0.00
   ISMEAR =     0;   SIGMA  =   0.20  broadening in eV -4-tet -1-fermi 0-gaus

 Electronic relaxation 2 (details)
   IALGO  =     68    algorithm
   LDIAG  =      T    sub-space diagonalisation (order eigenvalues)
   LSUBROT=      F    optimize rotation matrix (better conditioning)
   TURBO    =      0    0=normal 1=particle mesh
   IRESTART =      0    0=no restart 2=restart with 2 vectors
   NREBOOT  =      0    no. of reboots
   NMIN     =      0    reboot dimension
   EREF     =   0.00    reference energy to select bands
   IMIX   =      4    mixing-type and parameters
     AMIX     =   0.40;   BMIX     =  1.00
     AMIX_MAG =   1.60;   BMIX_MAG =  1.00
     AMIN     =   0.10
     WC   =   100.;   INIMIX=   1;  MIXPRE=   1;  MAXMIX= -45

 Intra band minimization:
   WEIMIN = 0.0010     energy-eigenvalue tresh-hold
   EBREAK =  0.22E-05  absolut break condition
   DEPER  =   0.30     relativ break condition  

   TIME   =   0.40     timestep for ELM

  volume/ion in A,a.u.               =      27.80       187.61
  Fermi-wavevector in a.u.,A,eV,Ry     =   1.087212  2.054532 16.082488  1.182030
  Thomas-Fermi vector in A             =   2.223366
 
 Write flags
   LWAVE        =      F    write WAVECAR
   LDOWNSAMPLE  =      F    k-point downsampling of WAVECAR
   LCHARG       =      T    write CHGCAR
   LVTOT        =      F    write LOCPOT, total local potential
   LVHAR        =      F    write LOCPOT, Hartree potential only
   LELF         =      F    write electronic localiz. function (ELF)
   LORBIT       =     11    0 simple, 1 ext, 2 COOP (PROOUT), +10 PAW based schemes


 Dipole corrections
   LMONO  =      F    monopole corrections only (constant potential shift)
   LDIPOL =      F    correct potential (dipole corrections)
   IDIPOL =      0    1-x, 2-y, 3-z, 4-all directions 
   EPSILON=  1.0000000 bulk dielectric constant

 Exchange correlation treatment:
   GGA     =    --    GGA type
   LEXCH   =     8    internal setting for exchange type
   LIBXC   =     F    Libxc                    
   VOSKOWN =     0    Vosko Wilk Nusair interpolation
   LHFCALC =     F    Hartree Fock is set to
   LHFONE  =     F    Hartree Fock one center treatment
   AEXX    =    0.0000 exact exchange contribution

 Linear response parameters
   LEPSILON=     F    determine dielectric tensor
   LRPA    =     F    only Hartree local field effects (RPA)
   LNABLA  =     F    use nabla operator in PAW spheres
   LVEL    =     F    velocity operator in full k-point grid
   CSHIFT  =0.1000    complex shift for real part using Kramers Kronig
   OMEGAMAX=  -1.0    maximum frequency
   DEG_THRESHOLD= 0.2000000E-02 threshold for treating states as degnerate
   RTIME   =   -0.100 relaxation time in fs
  (WPLASMAI=    0.000 imaginary part of plasma frequency in eV, 0.658/RTIME)
   DFIELD  = 0.0000000 0.0000000 0.0000000 field for delta impulse in time
 
  Optional k-point grid parameters
   LKPOINTS_OPT  =     F    use optional k-point grid
   KPOINTS_OPT_MODE=     1    mode for optional k-point grid
 
 Orbital magnetization related:
   ORBITALMAG=     F  switch on orbital magnetization
   LCHIMAG   =     F  perturbation theory with respect to B field
   DQ        =  0.001000  dq finite difference perturbation B field
   LLRAUG    =     F  two centre corrections for induced B field



--------------------------------------------------------------------------------------------------------


 conjugate gradient relaxation of ions
 charge density and potential will be updated during run
 spin polarized calculation
 RMM-DIIS sequential band-by-band and
  variant of blocked Davidson during initial phase
 perform sub-space diagonalisation
    before iterative eigenvector-optimisation
 modified Broyden-mixing scheme, WC =      100.0
 initial mixing is a Kerker type mixing with AMIX =  0.4000 and BMIX =      1.0000
 Hartree-type preconditioning will be used
 using additional bands            46
 real space projection scheme for non local part
 use partial core corrections
 calculate Harris-corrections to forces 
   (improved forces if not selfconsistent)
 use gradient corrections 
 use of overlap-Matrix (Vanderbilt PP)
 Gauss-broadening in eV      SIGMA  =   0.20


--------------------------------------------------------------------------------------------------------


  energy-cutoff  :      520.00
  volume of cell :      778.43
      direct lattice vectors                 reciprocal lattice vectors
     4.220266940  0.000000000  0.000000000     0.236951836  0.000000000  0.000000000
     0.000000000 12.103634920  0.000000000     0.000000000  0.082619809  0.000000000
     0.000000000  0.000000000 15.239162490     0.000000000  0.000000000  0.065620404

  length of vectors
     4.220266940 12.103634920 15.239162490     0.236951836  0.082619809  0.065620404


 
 k-points in units of 2pi/SCALE and weight: Kpoints from vasprun.xml                
   0.00000000  0.02065495  0.01640510       0.143
   0.03385026  0.02065495  0.01640510       0.286
   0.06770052  0.02065495  0.01640510       0.286
   0.10155079  0.02065495  0.01640510       0.286
 
 k-points in reciprocal lattice and weights: Kpoints from vasprun.xml                
   0.00000000  0.25000000  0.25000000       0.143
   0.14285714  0.25000000  0.25000000       0.286
   0.28571429  0.25000000  0.25000000       0.286
   0.42857143  0.25000000  0.25000000       0.286
 
 position of ions in fractional coordinates (direct lattice) 
   0.25000000  0.26032111  0.83048875
   0.75000000  0.23967889  0.33048875
   0.25000000  0.76032111  0.66951125
   0.75000000  0.73967889  0.16951125
   0.25000000  0.41253611  0.09657714
   0.25000000  0.43264683  0.60800431
   0.75000000  0.06735317  0.10800431
   0.75000000  0.56735317  0.39199569
   0.75000000  0.58746389  0.90342286
   0.75000000  0.08746389  0.59657714
   0.25000000  0.93264683  0.89199569
   0.25000000  0.91253611  0.40342286
   0.75000000  0.79444145  0.81472072
   0.75000000  0.60536847  0.58574147
   0.75000000  0.85800004  0.53741705
   0.25000000  0.20555855  0.18527928
   0.25000000  0.02433201  0.71785697
   0.75000000  0.97566799  0.28214303
   0.75000000  0.29444145  0.68527928
   0.75000000  0.35800004  0.96258295
   0.25000000  0.39463153  0.41425853
   0.75000000  0.47566799  0.21785697
   0.25000000  0.14199996  0.46258295
   0.25000000  0.70555855  0.31472072
   0.25000000  0.52433201  0.78214303
   0.25000000  0.64199996  0.03741705
   0.25000000  0.89463153  0.08574147
   0.75000000  0.10536847  0.91425853
 
 position of ions in cartesian coordinates  (Angst):
   1.05506674  3.15083168 12.65595301
   3.16520021  2.90098578  5.03637176
   1.05506674  9.20264914 10.20279073
   3.16520021  8.95280324  2.58320948
   1.05506674  4.99318647  1.47175473
   1.05506674  5.23659928  9.26547647
   3.16520021  0.81521818  1.64589523
   3.16520021  6.86703564  5.97368602
   3.16520021  7.11044845 13.76740776
   3.16520021  1.05863099  9.09133597
   1.05506674 11.28841674 13.59326726
   1.05506674 11.04500393  6.14782652
   3.16520021  9.61562928 12.41566144
   3.16520021  7.32715895  8.92620944
   3.16520021 10.38491925  8.18978575
   1.05506674  2.48800564  2.82350105
   1.05506674  0.29450577 10.93953901
   3.16520021 11.80912915  4.29962348
   3.16520021  3.56381182 10.44308230
   3.16520021  4.33310179 14.66895799
   1.05506674  4.77647597  6.31295305
   3.16520021  5.75731169  3.31995777
   1.05506674  1.71871567  7.04937674
   1.05506674  8.53982310  4.79608019
   1.05506674  6.34632323 11.91920472
   1.05506674  7.77053313  0.57020450
   1.05506674 10.82829343  1.30662819
   3.16520021  1.27534149 13.93253430
 


--------------------------------------------------------------------------------------------------------


 k-point   1 :   0.0000 0.2500 0.2500  plane waves:   20949
 k-point   2 :   0.1429 0.2500 0.2500  plane waves:   20926
 k-point   3 :   0.2857 0.2500 0.2500  plane waves:   20969
 k-point   4 :   0.4286 0.2500 0.2500  plane waves:   20990

 maximum and minimum number of plane-waves per node :     20990    20926

 maximum number of plane-waves:     20990
 maximum index in each direction: 
   IXMAX=    7   IYMAX=   22   IZMAX=   28
   IXMIN=   -8   IYMIN=  -22   IZMIN=  -28


 serial   3D FFT for wavefunctions
 parallel 3D FFT for charge:
    minimum data exchange during FFTs selected (reduces bandwidth)


 total amount of memory used by VASP MPI-rank0   292923. kBytes
=======================================================================

   base      :      30000. kBytes
   nonlr-proj:      36493. kBytes
   fftplans  :      24762. kBytes
   grid      :      88980. kBytes
   one-center:       2752. kBytes
   wavefun   :     109936. kBytes
 
     INWAV:  cpu time      0.0003: real time      0.0005
 Broyden mixing: mesh for mixing (old mesh)
   NGX = 15   NGY = 45   NGZ = 57
  (NGX  = 64   NGY  =180   NGZ  =240)
  gives a total of  38475 points

 initial charge density was supplied:
 charge density of overlapping atoms calculated
 number of electron     228.0000000 magnetization      42.4000000
 keeping initial charge density in first step


--------------------------------------------------------------------------------------------------------


 Maximum index for non-local projection operator         12117
 Maximum index for augmentation-charges          8402 (set IRDMAX)


--------------------------------------------------------------------------------------------------------


 First call to EWALD:  gamma=   0.193
 Maximum number of real-space cells 5x 2x 2
 Maximum number of reciprocal cells 2x 3x 4

    FEWALD:  cpu time      0.0014: real time      0.0014


--------------------------------------- Iteration      1(   1)  ---------------------------------------


    POTLOK:  cpu time      0.1190: real time      0.1891
    SETDIJ:  cpu time      0.0463: real time      0.0463
     EDDAV:  cpu time      1.5738: real time      1.5794
       DOS:  cpu time      0.0007: real time      0.0007
    --------------------------------------------
      LOOP:  cpu time      1.7398: real time      1.8154

 eigenvalue-minimisations  :  3304
 total energy-change (2. order) : 0.2475758E+04  (-0.7897716E+04)
 number of electron     228.0000000 magnetization      42.4000000
 augmentation part      228.0000000 magnetization      42.4000000

 Free energy of the ion-electron system (eV)
  ---------------------------------------------------
  alpha Z        PSCENC =      1004.74297820
  Ewald energy   TEWEN  =    -13573.94102215
  -Hartree energ DENC   =     -5109.07301314
  -exchange      EXHF   =         0.00000000
  -V(xc)+E(xc)   XCENC  =       259.40160013
  PAW double counting   =     15717.84036976   -15778.46652279
  entropy T*S    EENTRO =        -0.11765759
  eigenvalues    EBANDS =       783.25668965
  atomic energy  EATOM  =     19172.11455845
  Solvation  Ediel_sol  =         0.00000000
  ---------------------------------------------------
  free energy    TOTEN  =      2475.75798051 eV

  energy without entropy =     2475.87563811  energy(sigma->0) =     2475.81680931


--------------------------------------------------------------------------------------------------------




--------------------------------------- Iteration      1(   2)  ---------------------------------------


     EDDAV:  cpu time      1.4044: real time      1.4055
       DOS:  cpu time      0.0006: real time      0.0006
    --------------------------------------------
      LOOP:  cpu time      1.4050: real time      1.4061

 eigenvalue-minimisations  :  2976
 total energy-change (2. order) :-0.1881886E+04  (-0.1655414E+04)
 number of electron     228.0000000 magnetization      42.4000000
 augmentation part      228.0000000 magnetization      42.4000000

 Free energy of the ion-electron system (eV)
  ---------------------------------------------------
  alpha Z        PSCENC =      1004.74297820
  Ewald energy   TEWEN  =    -13573.94102215
  -Hartree energ DENC   =     -5109.07301314
  -exchange      EXHF   =         0.00000000
  -V(xc)+E(xc)   XCENC  =       259.40160013
  PAW double counting   =     15717.84036976   -15778.46652279
  entropy T*S    EENTRO =        -0.34422125
  eigenvalues    EBANDS =     -1098.40255093
  atomic energy  EATOM  =     19172.11455845
  Solvation  Ediel_sol  =         0.00000000
  ---------------------------------------------------
  free energy    TOTEN  =       593.87217627 eV

  energy without entropy =      594.21639753  energy(sigma->0) =      594.04428690


--------------------------------------------------------------------------------------------------------




--------------------------------------- Iteration      1(   3)  ---------------------------------------


     EDDAV:  cpu time      1.3793: real time      1.3803
       DOS:  cpu time      0.0007: real time      0.0007
    --------------------------------------------
      LOOP:  cpu time      1.3801: real time      1.3810

 eigenvalue-minimisations  :  2888
 total energy-change (2. order) :-0.6355488E+03  (-0.5588092E+03)
 number of electron     228.0000000 magnetization      42.4000000
 augmentation part      228.0000000 magnetization      42.4000000

 Free energy of the ion-electron system (eV)
  ---------------------------------------------------
  alpha Z        PSCENC =      1004.74297820
  Ewald energy   TEWEN  =    -13573.94102215
  -Hartree energ DENC   =     -5109.07301314
  -exchange      EXHF   =         0.00000000
  -V(xc)+E(xc)   XCENC  =       259.40160013
  PAW double counting   =     15717.84036976   -15778.46652279
  entropy T*S    EENTRO =        -0.34628743
  eigenvalues    EBANDS =     -1733.94933436
  atomic energy  EATOM  =     19172.11455845
  Solvation  Ediel_sol  =         0.00000000
  ---------------------------------------------------
  free energy    TOTEN  =       -41.67667334 eV

  energy without entropy =      -41.33038591  energy(sigma->0) =      -41.50352962


--------------------------------------------------------------------------------------------------------




--------------------------------------- Iteration      1(   4)  ---------------------------------------


     EDDAV:  cpu time      1.5279: real time      1.5288
       DOS:  cpu time      0.0007: real time      0.0007
    --------------------------------------------
      LOOP:  cpu time      1.5286: real time      1.5295

 eigenvalue-minimisations  :  3288
 total energy-change (2. order) :-0.1142755E+03  (-0.1086747E+03)
 number of electron     228.0000000 magnetization      42.4000000
 augmentation part      228.0000000 magnetization      42.4000000

 Free energy of the ion-electron system (eV)
  ---------------------------------------------------
  alpha Z        PSCENC =      1004.74297820
  Ewald energy   TEWEN  =    -13573.94102215
  -Hartree energ DENC   =     -5109.07301314
  -exchange      EXHF   =         0.00000000
  -V(xc)+E(xc)   XCENC  =       259.40160013
  PAW double counting   =     15717.84036976   -15778.46652279
  entropy T*S    EENTRO =        -1.19288791
  eigenvalues    EBANDS =     -1847.37819103
  atomic energy  EATOM  =     19172.11455845
  Solvation  Ediel_sol  =         0.00000000
  ---------------------------------------------------
  free energy    TOTEN  =      -155.95213048 eV

  energy without entropy =     -154.75924257  energy(sigma->0) =     -155.35568652


--------------------------------------------------------------------------------------------------------




--------------------------------------- Iteration      1(   5)  ---------------------------------------


     EDDAV:  cpu time      1.8754: real time      1.8775
       DOS:  cpu time      0.0007: real time      0.0007
    CHARGE:  cpu time      0.1256: real time      0.1257
    MIXING:  cpu time      0.0058: real time      0.0058
    --------------------------------------------
      LOOP:  cpu time      2.0075: real time      2.0097

 eigenvalue-minimisations  :  4256
 total energy-change (2. order) :-0.9682827E+01  (-0.9422856E+01)
 number of electron     227.9999981 magnetization      37.1827829
 augmentation part       26.3052790 magnetization      33.5693272

 Broyden mixing:
  rms(total) = 0.57248E+01    rms(broyden)= 0.57248E+01
  rms(prec ) = 0.63664E+01
  weight for this iteration     100.00

 Free energy of the ion-electron system (eV)
  ---------------------------------------------------
  alpha Z        PSCENC =      1004.74297820
  Ewald energy   TEWEN  =    -13573.94102215
  -Hartree energ DENC   =     -5109.07301314
  -exchange      EXHF   =         0.00000000
  -V(xc)+E(xc)   XCENC  =       259.40160013
  PAW double counting   =     15717.84036976   -15778.46652279
  entropy T*S    EENTRO =        -1.30020207
  eigenvalues    EBANDS =     -1856.95370434
  atomic energy  EATOM  =     19172.11455845
  Solvation  Ediel_sol  =         0.00000000
  ---------------------------------------------------
  free energy    TOTEN  =      -165.63495795 eV

  energy without entropy =     -164.33475588  energy(sigma->0) =     -164.98485692


--------------------------------------------------------------------------------------------------------




--------------------------------------- Iteration      1(   6)  ---------------------------------------


    POTLOK:  cpu time      0.0146: real time      0.0156
    SETDIJ:  cpu time      0.0462: real time      0.0462
    EDDIAG:  cpu time      0.1001: real time      0.1002
  RMM-DIIS:  cpu time      0.7999: real time      0.8044
    ORTHCH:  cpu time      0.0376: real time      0.0377
       DOS:  cpu time      0.0007: real time      0.0007
    CHARGE:  cpu time      0.1195: real time      0.1195
    MIXING:  cpu time      0.0062: real time      0.0092
    --------------------------------------------
      LOOP:  cpu time      1.1248: real time      1.1334

 eigenvalue-minimisations  :  3153
 total energy-change (2. order) :-0.2977164E+03  (-0.6230594E+02)
 number of electron     227.9999980 magnetization      36.2199068
 augmentation part       67.8655133 magnetization      26.7257163

 Broyden mixing:
  rms(total) = 0.21416E+02    rms(broyden)= 0.21416E+02
  rms(prec ) = 0.23510E+02
  weight for this iteration     100.00

 eigenvalues of (default mixing * dielectric matrix)
  average eigenvalue GAMMA=   0.1117
  0.1117

 Free energy of the ion-electron system (eV)
  ---------------------------------------------------
  alpha Z        PSCENC =      1004.74297820
  Ewald energy   TEWEN  =    -13573.94102215
  -Hartree energ DENC   =     -4656.57940471
  -exchange      EXHF   =         0.00000000
  -V(xc)+E(xc)   XCENC  =       248.62001183
  PAW double counting   =     15809.85481491   -15734.70018776
  entropy T*S    EENTRO =        -0.58024234
  eigenvalues    EBANDS =     -2732.88290998
  atomic energy  EATOM  =     19172.11455845
  Solvation  Ediel_sol  =         0.00000000
  ---------------------------------------------------
  free energy    TOTEN  =      -463.35140356 eV

  energy without entropy =     -462.77116122  energy(sigma->0) =     -463.06128239


--------------------------------------------------------------------------------------------------------




--------------------------------------- Iteration      1(   7)  ---------------------------------------


    POTLOK:  cpu time      0.0142: real time      0.0150
    SETDIJ:  cpu time      0.0464: real time      0.0464
    EDDIAG:  cpu time      0.0996: real time      0.0996
  RMM-DIIS:  cpu time      0.6711: real time      0.6715
    ORTHCH:  cpu time      0.0378: real time      0.0378
       DOS:  cpu time      0.0007: real time      0.0007
    CHARGE:  cpu time      0.1193: real time      0.1194
    MIXING:  cpu time      0.0061: real time      0.0061
    --------------------------------------------
      LOOP:  cpu time      0.9950: real time      0.9964

 eigenvalue-minimisations  :  2888
 total energy-change (2. order) : 0.3019278E+03  (-0.1759875E+02)
 number of electron     227.9999981 magnetization      34.9623923
 augmentation part       49.7666499 magnetization      31.1073190

 Broyden mixing:
  rms(total) = 0.68218E+01    rms(broyden)= 0.68218E+01
  rms(prec ) = 0.80814E+01
  weight for this iteration     100.00

 eigenvalues of (default mixing * dielectric matrix)
  average eigenvalue GAMMA=   0.2299
  0.2299  0.2299

 Free energy of the ion-electron system (eV)
  ---------------------------------------------------
  alpha Z        PSCENC =      1004.74297820
  Ewald energy   TEWEN  =    -13573.94102215
  -Hartree energ DENC   =     -4907.42718414
  -exchange      EXHF   =         0.00000000
  -V(xc)+E(xc)   XCENC  =       253.47816481
  PAW double counting   =     16370.11507149   -16389.20314763
  entropy T*S    EENTRO =        -1.40669034
  eigenvalues    EBANDS =     -2089.89635676
  atomic energy  EATOM  =     19172.11455845
  Solvation  Ediel_sol  =         0.00000000
  ---------------------------------------------------
  free energy    TOTEN  =      -161.42362807 eV

  energy without entropy =     -160.01693773  energy(sigma->0) =     -160.72028290


--------------------------------------------------------------------------------------------------------




--------------------------------------- Iteration      1(   8)  ---------------------------------------


    POTLOK:  cpu time      0.0145: real time      0.0152
    SETDIJ:  cpu time      0.0460: real time      0.0460
    EDDIAG:  cpu time      0.0994: real time      0.0994
  RMM-DIIS:  cpu time      0.7682: real time      0.7686
    ORTHCH:  cpu time      0.0377: real time      0.0377
       DOS:  cpu time      0.0007: real time      0.0007
    CHARGE:  cpu time      0.1186: real time      0.1187
    MIXING:  cpu time      0.0061: real time      0.0061
    --------------------------------------------
      LOOP:  cpu time      1.0911: real time      1.0924

 eigenvalue-minimisations  :  3349
 total energy-change (2. order) :-0.2111465E+01  (-0.6131773E+01)
 number of electron     227.9999981 magnetization      29.6287515
 augmentation part       27.5868847 magnetization      27.2962406

 Broyden mixing:
  rms(total) = 0.40212E+01    rms(broyden)= 0.40211E+01
  rms(prec ) = 0.46027E+01
  weight for this iteration     100.00

 eigenvalues of (default mixing * dielectric matrix)
  average eigenvalue GAMMA=   0.5398
  1.1822  0.2186  0.2186

 Free energy of the ion-electron system (eV)
  ---------------------------------------------------
  alpha Z        PSCENC =      1004.74297820
  Ewald energy   TEWEN  =    -13573.94102215
  -Hartree energ DENC   =     -5095.87724791
  -exchange      EXHF   =         0.00000000
  -V(xc)+E(xc)   XCENC  =       261.72589098
  PAW double counting   =     16868.89255075   -16947.66367434
  entropy T*S    EENTRO =        -0.99656261
  eigenvalues    EBANDS =     -1852.53256427
  atomic energy  EATOM  =     19172.11455845
  Solvation  Ediel_sol  =         0.00000000
  ---------------------------------------------------
  free energy    TOTEN  =      -163.53509290 eV

  energy without entropy =     -162.53853029  energy(sigma->0) =     -163.03681160


--------------------------------------------------------------------------------------------------------




--------------------------------------- Iteration      1(   9)  ---------------------------------------


    POTLOK:  cpu time      0.0143: real time      0.0154
    SETDIJ:  cpu time      0.0468: real time      0.0468
    EDDIAG:  cpu time      0.0998: real time      0.0998
  RMM-DIIS:  cpu time      0.8305: real time      0.8318
    ORTHCH:  cpu time      0.0378: real time      0.0378
       DOS:  cpu time      0.0007: real time      0.0007
    CHARGE:  cpu time      0.1181: real time      0.1182
    MIXING:  cpu time      0.0062: real time      0.0062
    --------------------------------------------
      LOOP:  cpu time      1.1541: real time      1.1566

 eigenvalue-minimisations  :  3580
 total energy-change (2. order) : 0.7499337E+01  (-0.6252004E+00)
 number of electron     227.9999981 magnetization      26.2993643
 augmentation part       28.4965875 magnetization      24.6672922

 Broyden mixing:
  rms(total) = 0.30302E+01    rms(broyden)= 0.30302E+01
  rms(prec ) = 0.35824E+01
  weight for this iteration     100.00

 eigenvalues of (default mixing * dielectric matrix)
  average eigenvalue GAMMA=   0.6904
  1.7275  0.2310  0.2310  0.5723

 Free energy of the ion-electron system (eV)
  ---------------------------------------------------
  alpha Z        PSCENC =      1004.74297820
  Ewald energy   TEWEN  =    -13573.94102215
  -Hartree energ DENC   =     -5067.11993165
  -exchange      EXHF   =         0.00000000
  -V(xc)+E(xc)   XCENC  =       263.06276128
  PAW double counting   =     17689.16195105   -17771.45221683
  entropy T*S    EENTRO =        -1.26622012
  eigenvalues    EBANDS =     -1871.33861376
  atomic energy  EATOM  =     19172.11455845
  Solvation  Ediel_sol  =         0.00000000
  ---------------------------------------------------
  free energy    TOTEN  =      -156.03575553 eV

  energy without entropy =     -154.76953541  energy(sigma->0) =     -155.40264547


--------------------------------------------------------------------------------------------------------




--------------------------------------- Iteration      1(  10)  ---------------------------------------


    POTLOK:  cpu time      0.0142: real time      0.0151
    SETDIJ:  cpu time      0.0469: real time      0.0469
    EDDIAG:  cpu time      0.0996: real time      0.0996
  RMM-DIIS:  cpu time      0.8519: real time      0.8521
    ORTHCH:  cpu time      0.0379: real time      0.0380
       DOS:  cpu time      0.0007: real time      0.0007
    CHARGE:  cpu time      0.1172: real time      0.1173
    MIXING:  cpu time      0.0066: real time      0.0066
    --------------------------------------------
      LOOP:  cpu time      1.1749: real time      1.1763

 eigenvalue-minimisations  :  3708
 total energy-change (2. order) : 0.4643391E+01  (-0.4706341E+00)
 number of electron     227.9999981 magnetization      26.1637120
 augmentation part       35.6598377 magnetization      23.4224605

 Broyden mixing:
  rms(total) = 0.25696E+01    rms(broyden)= 0.25695E+01
  rms(prec ) = 0.25903E+01
  weight for this iteration     100.00

 eigenvalues of (default mixing * dielectric matrix)
  average eigenvalue GAMMA=   0.5651
  1.7297  0.5865  0.2309  0.2309  0.0476

 Free energy of the ion-electron system (eV)
  ---------------------------------------------------
  alpha Z        PSCENC =      1004.74297820
  Ewald energy   TEWEN  =    -13573.94102215
  -Hartree energ DENC   =     -5026.01822416
  -exchange      EXHF   =         0.00000000
  -V(xc)+E(xc)   XCENC  =       262.12309942
  PAW double counting   =     18059.19587901   -18131.45592068
  entropy T*S    EENTRO =        -0.53975680
  eigenvalues    EBANDS =     -1917.61395593
  atomic energy  EATOM  =     19172.11455845
  Solvation  Ediel_sol  =         0.00000000
  ---------------------------------------------------
  free energy    TOTEN  =      -151.39236464 eV

  energy without entropy =     -150.85260784  energy(sigma->0) =     -151.12248624


--------------------------------------------------------------------------------------------------------




--------------------------------------- Iteration      1(  11)  ---------------------------------------


    POTLOK:  cpu time      0.0147: real time      0.0154
    SETDIJ:  cpu time      0.0462: real time      0.0462
    EDDIAG:  cpu time      0.0997: real time      0.0998
  RMM-DIIS:  cpu time      0.9671: real time      0.9675
    ORTHCH:  cpu time      0.0380: real time      0.0380
       DOS:  cpu time      0.0006: real time      0.0006
    CHARGE:  cpu time      0.1224: real time      0.1225
    MIXING:  cpu time      0.0069: real time      0.0069
    --------------------------------------------
      LOOP:  cpu time      1.2956: real time      1.2968

 eigenvalue-minimisations  :  4195
 total energy-change (2. order) :-0.8419823E+00  (-0.8473203E-01)
 number of electron     227.9999981 magnetization      25.8994695
 augmentation part       36.2376031 magnetization      23.0141675

 Broyden mixing:
  rms(total) = 0.24973E+01    rms(broyden)= 0.24973E+01
  rms(prec ) = 0.25421E+01
  weight for this iteration     100.00

 eigenvalues of (default mixing * dielectric matrix)
  average eigenvalue GAMMA=   0.8476
  2.4740  0.8401  0.2300  0.2300  0.6559  0.6559

 Free energy of the ion-electron system (eV)
  ---------------------------------------------------
  alpha Z        PSCENC =      1004.74297820
  Ewald energy   TEWEN  =    -13573.94102215
  -Hartree energ DENC   =     -5023.09490638
  -exchange      EXHF   =         0.00000000
  -V(xc)+E(xc)   XCENC  =       263.11595253
  PAW double counting   =     18082.78019423   -18153.45371386
  entropy T*S    EENTRO =        -0.43978982
  eigenvalues    EBANDS =     -1924.05859814
  atomic energy  EATOM  =     19172.11455845
  Solvation  Ediel_sol  =         0.00000000
  ---------------------------------------------------
  free energy    TOTEN  =      -152.23434694 eV

  energy without entropy =     -151.79455712  energy(sigma->0) =     -152.01445203


--------------------------------------------------------------------------------------------------------




--------------------------------------- Iteration      1(  12)  ---------------------------------------


    POTLOK:  cpu time      0.0145: real time      0.0154
    SETDIJ:  cpu time      0.0464: real time      0.0465
    EDDIAG:  cpu time      0.0997: real time      0.0997
  RMM-DIIS:  cpu time      0.8474: real time      0.8477
    ORTHCH:  cpu time      0.0375: real time      0.0376
       DOS:  cpu time      0.0007: real time      0.0007
    CHARGE:  cpu time      0.1181: real time      0.1181
    MIXING:  cpu time      0.0067: real time      0.0067
    --------------------------------------------
      LOOP:  cpu time      1.1710: real time      1.1724

 eigenvalue-minimisations  :  3632
 total energy-change (2. order) :-0.3275757E+01  (-0.1623783E+00)
 number of electron     227.9999981 magnetization      26.2551563
 augmentation part       36.6638695 magnetization      24.0899958

 Broyden mixing:
  rms(total) = 0.14145E+01    rms(broyden)= 0.14145E+01
  rms(prec ) = 0.15393E+01
  weight for this iteration     100.00

 eigenvalues of (default mixing * dielectric matrix)
  average eigenvalue GAMMA=   0.8254
  2.5171  0.2298  0.2298  0.8607  0.6903  0.6903  0.5599

 Free energy of the ion-electron system (eV)
  ---------------------------------------------------
  alpha Z        PSCENC =      1004.74297820
  Ewald energy   TEWEN  =    -13573.94102215
  -Hartree energ DENC   =     -5017.56645053
  -exchange      EXHF   =         0.00000000
  -V(xc)+E(xc)   XCENC  =       269.12823117
  PAW double counting   =     18364.32085092   -18423.89455610
  entropy T*S    EENTRO =        -0.41659177
  eigenvalues    EBANDS =     -1949.99810195
  atomic energy  EATOM  =     19172.11455845
  Solvation  Ediel_sol  =         0.00000000
  ---------------------------------------------------
  free energy    TOTEN  =      -155.51010376 eV

  energy without entropy =     -155.09351199  energy(sigma->0) =     -155.30180787


--------------------------------------------------------------------------------------------------------




--------------------------------------- Iteration      1(  13)  ---------------------------------------


    POTLOK:  cpu time      0.0146: real time      0.0152
    SETDIJ:  cpu time      0.0463: real time      0.0464
    EDDIAG:  cpu time      0.0995: real time      0.0996
  RMM-DIIS:  cpu time      0.9360: real time      0.9368
    ORTHCH:  cpu time      0.0378: real time      0.0378
       DOS:  cpu time      0.0006: real time      0.0007
    CHARGE:  cpu time      0.1176: real time      0.1176
    MIXING:  cpu time      0.0068: real time      0.0068
    --------------------------------------------
      LOOP:  cpu time      1.2593: real time      1.2608

 eigenvalue-minimisations  :  4027
 total energy-change (2. order) : 0.1014140E+00  (-0.4574852E-01)
 number of electron     227.9999981 magnetization      26.6245773
 augmentation part       36.5334757 magnetization      24.8434762

 Broyden mixing:
  rms(total) = 0.10197E+01    rms(broyden)= 0.10197E+01
  rms(prec ) = 0.11610E+01
  weight for this iteration     100.00

 eigenvalues of (default mixing * dielectric matrix)
  average eigenvalue GAMMA=   0.8207
  2.0744  1.6098  0.2299  0.2299  0.6487  0.6487  0.5621  0.5621

 Free energy of the ion-electron system (eV)
  ---------------------------------------------------
  alpha Z        PSCENC =      1004.74297820
  Ewald energy   TEWEN  =    -13573.94102215
  -Hartree energ DENC   =     -5023.31807026
  -exchange      EXHF   =         0.00000000
  -V(xc)+E(xc)   XCENC  =       270.75415286
  PAW double counting   =     18350.50242043   -18409.80744062
  entropy T*S    EENTRO =        -0.49268898
  eigenvalues    EBANDS =     -1945.96357770
  atomic energy  EATOM  =     19172.11455845
  Solvation  Ediel_sol  =         0.00000000
  ---------------------------------------------------
  free energy    TOTEN  =      -155.40868977 eV

  energy without entropy =     -154.91600079  energy(sigma->0) =     -155.16234528


--------------------------------------------------------------------------------------------------------




--------------------------------------- Iteration      1(  14)  ---------------------------------------


    POTLOK:  cpu time      0.0142: real time      0.0150
    SETDIJ:  cpu time      0.0462: real time      0.0462
    EDDIAG:  cpu time      0.0996: real time      0.0997
  RMM-DIIS:  cpu time      0.8582: real time      0.8585
    ORTHCH:  cpu time      0.0377: real time      0.0377
       DOS:  cpu time      0.0006: real time      0.0006
    CHARGE:  cpu time      0.1170: real time      0.1170
    MIXING:  cpu time      0.0076: real time      0.0076
    --------------------------------------------
      LOOP:  cpu time      1.1812: real time      1.1824

 eigenvalue-minimisations  :  3727
 total energy-change (2. order) : 0.5994054E+00  (-0.2658646E-01)
 number of electron     227.9999981 magnetization      26.6299503
 augmentation part       36.3441435 magnetization      25.1516223

 Broyden mixing:
  rms(total) = 0.76685E+00    rms(broyden)= 0.76685E+00
  rms(prec ) = 0.90478E+00
  weight for this iteration     100.00

 eigenvalues of (default mixing * dielectric matrix)
  average eigenvalue GAMMA=   0.8107
  2.0157  1.6951  0.7329  0.7329  0.2299  0.2299  0.5612  0.5612  0.5371

 Free energy of the ion-electron system (eV)
  ---------------------------------------------------
  alpha Z        PSCENC =      1004.74297820
  Ewald energy   TEWEN  =    -13573.94102215
  -Hartree energ DENC   =     -5035.18263596
  -exchange      EXHF   =         0.00000000
  -V(xc)+E(xc)   XCENC  =       272.34847534
  PAW double counting   =     18330.52783717   -18390.77254772
  entropy T*S    EENTRO =        -0.48561449
  eigenvalues    EBANDS =     -1934.16131321
  atomic energy  EATOM  =     19172.11455845
  Solvation  Ediel_sol  =         0.00000000
  ---------------------------------------------------
  free energy    TOTEN  =      -154.80928438 eV

  energy without entropy =     -154.32366989  energy(sigma->0) =     -154.56647713


--------------------------------------------------------------------------------------------------------




--------------------------------------- Iteration      1(  15)  ---------------------------------------


    POTLOK:  cpu time      0.0147: real time      0.0155
    SETDIJ:  cpu time      0.0460: real time      0.0461
    EDDIAG:  cpu time      0.0997: real time      0.1006
  RMM-DIIS:  cpu time      0.8872: real time      0.8875
    ORTHCH:  cpu time      0.0379: real time      0.0379
       DOS:  cpu time      0.0007: real time      0.0007
    CHARGE:  cpu time      0.1190: real time      0.1191
    MIXING:  cpu time      0.0073: real time      0.0073
    --------------------------------------------
      LOOP:  cpu time      1.2125: real time      1.2147

 eigenvalue-minimisations  :  3784
 total energy-change (2. order) : 0.2061881E+00  (-0.1202554E-01)
 number of electron     227.9999981 magnetization      26.4415461
 augmentation part       36.2372052 magnetization      25.0152941

 Broyden mixing:
  rms(total) = 0.72500E+00    rms(broyden)= 0.72500E+00
  rms(prec ) = 0.84874E+00
  weight for this iteration     100.00

 eigenvalues of (default mixing * dielectric matrix)
  average eigenvalue GAMMA=   0.8697
  2.2146  1.2756  1.2756  1.2490  0.2299  0.2299  0.5888  0.5888  0.5222  0.5222

 Free energy of the ion-electron system (eV)
  ---------------------------------------------------
  alpha Z        PSCENC =      1004.74297820
  Ewald energy   TEWEN  =    -13573.94102215
  -Hartree energ DENC   =     -5038.98833756
  -exchange      EXHF   =         0.00000000
  -V(xc)+E(xc)   XCENC  =       272.56434245
  PAW double counting   =     18332.24404696   -18393.30452224
  entropy T*S    EENTRO =        -0.49730889
  eigenvalues    EBANDS =     -1929.53783152
  atomic energy  EATOM  =     19172.11455845
  Solvation  Ediel_sol  =         0.00000000
  ---------------------------------------------------
  free energy    TOTEN  =      -154.60309631 eV

  energy without entropy =     -154.10578742  energy(sigma->0) =     -154.35444187


--------------------------------------------------------------------------------------------------------




--------------------------------------- Iteration      1(  16)  ---------------------------------------


    POTLOK:  cpu time      0.0148: real time      0.0152
    SETDIJ:  cpu time      0.0464: real time      0.0465
    EDDIAG:  cpu time      0.0995: real time      0.0995
  RMM-DIIS:  cpu time      0.8891: real time      0.8915
    ORTHCH:  cpu time      0.0377: real time      0.0377
       DOS:  cpu time      0.0007: real time      0.0007
    CHARGE:  cpu time      0.1178: real time      0.1179
    MIXING:  cpu time      0.0074: real time      0.0074
    --------------------------------------------
      LOOP:  cpu time      1.2133: real time      1.2163

 eigenvalue-minimisations  :  3817
 total energy-change (2. order) : 0.5296810E+00  (-0.3218558E-01)
 number of electron     227.9999981 magnetization      26.1548058
 augmentation part       35.0203258 magnetization      24.9499332

 Broyden mixing:
  rms(total) = 0.51991E+00    rms(broyden)= 0.51991E+00
  rms(prec ) = 0.52774E+00
  weight for this iteration     100.00

 eigenvalues of (default mixing * dielectric matrix)
  average eigenvalue GAMMA=   0.8895
  2.4357  1.4715  1.4715  1.1527  0.2299  0.2299  0.6128  0.6128  0.5336  0.5336
  0.5002

 Free energy of the ion-electron system (eV)
  ---------------------------------------------------
  alpha Z        PSCENC =      1004.74297820
  Ewald energy   TEWEN  =    -13573.94102215
  -Hartree energ DENC   =     -5051.93816028
  -exchange      EXHF   =         0.00000000
  -V(xc)+E(xc)   XCENC  =       272.35258492
  PAW double counting   =     18323.65711579   -18388.65906548
  entropy T*S    EENTRO =        -0.64204814
  eigenvalues    EBANDS =     -1911.76035658
  atomic energy  EATOM  =     19172.11455845
  Solvation  Ediel_sol  =         0.00000000
  ---------------------------------------------------
  free energy    TOTEN  =      -154.07341528 eV

  energy without entropy =     -153.43136714  energy(sigma->0) =     -153.75239121


--------------------------------------------------------------------------------------------------------




--------------------------------------- Iteration      1(  17)  ---------------------------------------


    POTLOK:  cpu time      0.0141: real time      0.0150
    SETDIJ:  cpu time      0.0462: real time      0.0463
    EDDIAG:  cpu time      0.0994: real time      0.1003
  RMM-DIIS:  cpu time      0.8439: real time      0.8443
    ORTHCH:  cpu time      0.0379: real time      0.0379
       DOS:  cpu time      0.0006: real time      0.0006
    CHARGE:  cpu time      0.1226: real time      0.1234
    MIXING:  cpu time      0.0082: real time      0.0083
    --------------------------------------------
      LOOP:  cpu time      1.1729: real time      1.1761

 eigenvalue-minimisations  :  3569
 total energy-change (2. order) :-0.3090403E-01  (-0.6447216E-02)
 number of electron     227.9999981 magnetization      25.8065551
 augmentation part       35.7750101 magnetization      24.4758593

 Broyden mixing:
  rms(total) = 0.64867E+00    rms(broyden)= 0.64867E+00
  rms(prec ) = 0.71045E+00
  weight for this iteration     100.00

 eigenvalues of (default mixing * dielectric matrix)
  average eigenvalue GAMMA=   0.9378
  2.5502  1.8108  1.8108  0.9137  0.9137  0.7731  0.2299  0.2299  0.5744  0.5744
  0.4365  0.4365

 Free energy of the ion-electron system (eV)
  ---------------------------------------------------
  alpha Z        PSCENC =      1004.74297820
  Ewald energy   TEWEN  =    -13573.94102215
  -Hartree energ DENC   =     -5048.09019434
  -exchange      EXHF   =         0.00000000
  -V(xc)+E(xc)   XCENC  =       271.66227877
  PAW double counting   =     18322.96089259   -18386.88739910
  entropy T*S    EENTRO =        -0.54114215
  eigenvalues    EBANDS =     -1916.12526958
  atomic energy  EATOM  =     19172.11455845
  Solvation  Ediel_sol  =         0.00000000
  ---------------------------------------------------
  free energy    TOTEN  =      -154.10431931 eV

  energy without entropy =     -153.56317716  energy(sigma->0) =     -153.83374823


--------------------------------------------------------------------------------------------------------




--------------------------------------- Iteration      1(  18)  ---------------------------------------


    POTLOK:  cpu time      0.0143: real time      0.0152
    SETDIJ:  cpu time      0.0462: real time      0.0462
    EDDIAG:  cpu time      0.0998: real time      0.0998
  RMM-DIIS:  cpu time      0.8352: real time      0.8358
    ORTHCH:  cpu time      0.0378: real time      0.0378
       DOS:  cpu time      0.0006: real time      0.0006
    CHARGE:  cpu time      0.1177: real time      0.1177
    MIXING:  cpu time      0.0080: real time      0.0080
    --------------------------------------------
      LOOP:  cpu time      1.1597: real time      1.1613

 eigenvalue-minimisations  :  3563
 total energy-change (2. order) : 0.6065314E-01  (-0.6200773E-02)
 number of electron     227.9999981 magnetization      25.6012445
 augmentation part       35.6000029 magnetization      24.4574657

 Broyden mixing:
  rms(total) = 0.57064E+00    rms(broyden)= 0.57064E+00
  rms(prec ) = 0.61821E+00
  weight for this iteration     100.00

 eigenvalues of (default mixing * dielectric matrix)
  average eigenvalue GAMMA=   0.9446
  2.6030  1.8621  1.8621  1.0167  1.0167  0.8160  0.2299  0.2299  0.5701  0.5701
  0.5391  0.5014  0.4626

 Free energy of the ion-electron system (eV)
  ---------------------------------------------------
  alpha Z        PSCENC =      1004.74297820
  Ewald energy   TEWEN  =    -13573.94102215
  -Hartree energ DENC   =     -5050.27940989
  -exchange      EXHF   =         0.00000000
  -V(xc)+E(xc)   XCENC  =       271.12360662
  PAW double counting   =     18302.98575531   -18366.70228163
  entropy T*S    EENTRO =        -0.56200603
  eigenvalues    EBANDS =     -1913.52584503
  atomic energy  EATOM  =     19172.11455845
  Solvation  Ediel_sol  =         0.00000000
  ---------------------------------------------------
  free energy    TOTEN  =      -154.04366617 eV

  energy without entropy =     -153.48166014  energy(sigma->0) =     -153.76266315


--------------------------------------------------------------------------------------------------------




--------------------------------------- Iteration      1(  19)  ---------------------------------------


    POTLOK:  cpu time      0.0142: real time      0.0153
    SETDIJ:  cpu time      0.0464: real time      0.0464
    EDDIAG:  cpu time      0.0995: real time      0.0995
  RMM-DIIS:  cpu time      0.8370: real time      0.8391
    ORTHCH:  cpu time      0.0377: real time      0.0378
       DOS:  cpu time      0.0006: real time      0.0006
    CHARGE:  cpu time      0.1234: real time      0.1235
    MIXING:  cpu time      0.0082: real time      0.0082
    --------------------------------------------
      LOOP:  cpu time      1.1670: real time      1.1704

 eigenvalue-minimisations  :  3550
 total energy-change (2. order) : 0.2471820E-01  (-0.3922997E-02)
 number of electron     227.9999981 magnetization      25.3191736
 augmentation part       35.3556082 magnetization      24.3691769

 Broyden mixing:
  rms(total) = 0.44297E+00    rms(broyden)= 0.44297E+00
  rms(prec ) = 0.47257E+00
  weight for this iteration     100.00

 eigenvalues of (default mixing * dielectric matrix)
  average eigenvalue GAMMA=   0.9670
  2.6932  1.9638  1.9638  1.0537  1.0537  0.9054  0.2299  0.2299  0.6490  0.6490
  0.6272  0.6272  0.4611  0.4309

 Free energy of the ion-electron system (eV)
  ---------------------------------------------------
  alpha Z        PSCENC =      1004.74297820
  Ewald energy   TEWEN  =    -13573.94102215
  -Hartree energ DENC   =     -5052.75383676
  -exchange      EXHF   =         0.00000000
  -V(xc)+E(xc)   XCENC  =       271.17488975
  PAW double counting   =     18297.44064162   -18360.77262622
[...]
  296              map_forward                           0.016514                    220   6
  297                map_gather                            0.003090                  110   7
  298                m_alltoallv_z                         0.001640                  110   7
  299                map_scatter                           0.009617                  110   7
  300              map_backward                          0.019900                    264   6
  301                map_gather                            0.004168                  132   7
  302                m_alltoallv_z                         0.001710                  132   7
  303                map_scatter                           0.010962                  132   7
  304        m_sumb_d                              0.000347                           55   3
  305        forhar                                0.059687                           22   3
  306          m_sumb_d                              0.002036                         22   4
  307        strehar                               0.035966                           11   3
  308          m_sumb_d                              0.000426                         11   4
  309        chggra                                0.011998                           11   3
  310          fft3d_mpi                             0.007640                         33   4
  311            fftbrc_mpi                            0.006146                       33   5
  312              fftbas_plan_mpi                       0.006128                     33   6
  313                map_forward                           0.003744                   44   7
  314                  map_gather                            0.000610                 22   8
  315                  m_alltoallv_z                         0.000315                 22   8
  316                  map_scatter                           0.002386                 22   8
  317                map_backward                          0.001440                   22   7
  318                  map_gather                            0.000344                 11   8
  319                  m_alltoallv_z                         0.000139                 11   8
  320                  map_scatter                           0.000707                 11   8
  321          m_sumb_d                              0.000109                         22   4
  322          pothar                                0.001083                         11   4
  323            m_sumb_d                              0.000155                       11   5
  324        brmix                                 0.088437                           11   3
  325          m_sumb_d                              0.000691                         66   4
  326          brpre                                 0.000825                         22   4
  327          setg0                                 0.030185                         11   4
  328          broyd                                 0.024323                         11   4
  329            m_sumb_d                              0.001689                      200   5
  330            brsav                                 0.002994                      182   5
  331            brget                                 0.007926                      714   5
  332        m_bcast_d                             0.000355                           22   3
  333      potlok                                0.106739                             11   2
  334        fft3d_mpi                             0.064805                          286   3
  335          fftbrc_mpi                            0.051423                        286   4
  336            fftbas_plan_mpi                       0.051283                      286   5
  337              map_forward                           0.022531                    308   6
  338                map_gather                            0.004631                  176   7
  339                m_alltoallv_z                         0.002278                  176   7
  340                map_scatter                           0.013014                  176   7
  341              map_backward                          0.019863                    264   6
  342                map_gather                            0.004170                  132   7
  343                m_alltoallv_z                         0.001746                  132   7
  344                map_scatter                           0.010929                  132   7
  345        m_sumb_d                              0.000325                           55   3
  346        pothar                                0.001165                           11   3
  347          m_sumb_d                              0.000118                         11   4
  348        m_bcast_d                             0.000281                           22   3
  349      potlok_metagga                        0.000002                             11   2
  350      set_dd_magatom                        0.000042                             11   2
  351      set_dd_paw                            0.269503                             11   2
  352        m_sumb_d                              0.006160                           77   3
  353      wavpre_noio                           0.555715                             10   2
  354        stufak                                0.325606                           10   3
  355      densta                                0.006317                              1   2
  356        m_sumb_d                              0.001558                           42   3
 
 Flat profile
 ============
 
             routine name                   CPU           calls
 ---------------------------------------------------------------
 raccmu_                                17.818807       32267
 eccp                                   16.323293      172895
 total_time                             11.902764           1
 init_acc                               11.579918           1
 phaser                                 10.841562        1676
 setdij_                                 9.182858         432
 i2                                      8.492377       23098
 eccp_nl                                 7.159005      128735
 redis_pw                                6.760440       63422
 m_sumb_d                                6.556371       43699
 w1_gemv                                 5.953344      247298
 eddrmm                                  5.461617         123
 eddav                                   5.023659          15
 rspher_all                              4.501439         144
 rpromu_acc                              4.318640       41307
 lapack                                  4.272280        9169
 set_dd_paw                              3.765514         156
 m_alltoall_d                            3.760023      583726
 cnorma                                  3.526261      128735
 eddiag                                  3.520891         123
 fftwav                                  3.381009      277685
 augmentation_charge                     3.299919         134
 fft3d                                   2.954875      424852
 set_charge                              2.901237         134
 hamilt_local                            2.752997       39360
 rpro_isp                                2.574039         572
 acc_init_cublas                         2.460712           1
 soft_charge                             2.117914         134
 overl1                                  2.014368      123649
 w1_copy                                 1.662753      323421
 setup_precond                           1.564641       44160
 hamiltmu                                1.458116       32267
 w1_dscal                                1.439831      239749
 pw_charge                               1.294654       31907
 newband                                 1.219054       33371
 potlok                                  1.143634         145
 w1_dot                                  1.128192       39313
 racc0mu_acc                             1.098642       32267
 apply_precond                           1.027915      223642
 redis_proj                              1.012546       70160
 w1_daxpy                                0.993928      178844
 w1_gaxpy                                0.848851      170791
 fft3d_mpi                               0.846719      151765
 acc_init_cusolver                       0.785000           1
 depsum                                  0.709008         134
 orth1                                   0.706724       37787
 dfftw_execute                           0.691347        1659
 elmin                                   0.673066          11
 kinhamil                                0.632279      147167
 vhamil                                  0.618419      147167
 fftext_mpi                              0.581763      147167
 m_alltoallv_z                           0.578684        5156
 map_scatter                             0.506848        5156
 overl_mu                                0.500622       32267
 m_bcast_z                               0.445286       10449
 zhegv                                   0.396140       50109
 brmix                                   0.386494         134
 orthch                                  0.384493         134
 proall                                  0.376300          11
 fftwav_mpi                              0.368222      277685
 map_gather                              0.365752        5156
 setg0                                   0.359045         156
 stufak                                  0.357463          11
 choleski                                0.347619        1072
 overl                                   0.285466       33932
 force_and_stress                        0.239061          11
 i3                                      0.232455       23098
 wavpre_noio                             0.230109          10
 fftbas_plan_mpi                         0.174847        4598
 acc_cufft_makeplan                      0.160803          19
 sphpro_fast                             0.156655          12
 m_bcast_d                               0.152113       18673
 ggemm                                   0.148948       11569
 broyd                                   0.083614         134
 lincom                                  0.066740        2176
 brget                                   0.062018        5615
 densta                                  0.059787         139
 forhar                                  0.057651          22
 strelo                                  0.047167          11
 map_backward                            0.044900        4838
 map_forward                             0.037876        4358
 strehar                                 0.035540          11
 forloc                                  0.029197          11
 w1_projall                              0.028667       29867
 i1                                      0.028052       23098
 fft_gq                                  0.027180         134
 strnlr                                  0.023982          11
 brsav                                   0.018703        1585
 pothar                                  0.014818         156
 strkin                                  0.012353          11
 truncate_high_frequency_w1              0.011453      151967
 rsp                                     0.010920          11
 brpre                                   0.008182         268
 fornlr                                  0.007752          11
 inisym                                  0.004561           1
 chggra                                  0.003166          11
 fftbrc_mpi                              0.002371        4598
 fordep                                  0.000927          11
 vectorpot                               0.000725         135
 set_dd_magatom                          0.000642         156
 brgrid                                  0.000444           1
 fewald                                  0.000401          11
 rcp                                     0.000294          11
 shift_bands_between_low_high            0.000138         984
 posmap                                  0.000070           2
 crpa_reader                             0.000029           1
 potlok_metagga                          0.000013         145
 acc_cufft_makeplans                     0.000010           3
 rotate_active_occupied_orbital          0.000006          11
 redis_pw_over_bands                     0.000000          11
 ---------------------------------------------------------------
  summed up times     205.1989850997925     
 
 Accumulative profile
 ====================
 
             routine name                   CPU           calls
 ---------------------------------------------------------------
 total_time                            205.198985           1
 elmin                                 151.441904          11
 eddrmm                                 84.880004         123
 i3                                     25.161665       23098
 eddav                                  24.916221          15
 force_and_stress                       23.084838          11
 hamiltmu                               23.010272       32267
 i2                                     21.835807       23098
 raccmu_                                19.418071       32267
 eccp                                   16.323293      172895
 set_charge                             15.894716         134
 eddiag                                 12.262931         123
 init_acc                               11.579918           1
 strnlr                                 11.219215          11
 phaser                                 10.841562        1676
 cnorma                                 10.685266      128735
 setdij_                                 9.385290         432
 newband                                 8.748218       33371
 redis_pw                                8.520248       63422
 w1_gemv                                 7.967712      247298
 rpro_isp                                7.348211         572
 eccp_nl                                 7.159005      128735
 m_sumb_d                                6.556371       43699
 soft_charge                             5.996882         134
 fftwav_mpi                              5.731493      277685
 orthch                                  5.492414         134
 fftwav                                  5.363271      277685
 augmentation_charge                     4.658559         134
 rspher_all                              4.501439         144
 rpromu_acc                              4.318640       41307
 lapack                                  4.272280        9169
 fft3d_mpi                               4.221957      151765
 set_dd_paw                              3.841602         156
 m_alltoall_d                            3.760023      583726
 fornlr                                  3.749726          11
 hamilt_local                            3.466058       39360
 redis_proj                              3.012762       70160
 fft3d                                   2.954875      424852
 acc_init_cublas                         2.460712           1
 fftbrc_mpi                              2.402625        4598
 fftbas_plan_mpi                         2.400254        4598
 kinhamil                                2.228727      147167
 potlok                                  2.167520         145
 overl1                                  2.014368      123649
 w1_copy                                 1.662753      323421
 fftext_mpi                              1.596448      147167
 setup_precond                           1.564641       44160
 w1_dscal                                1.439831      239749
 fordep                                  1.421546          11
 depsum                                  1.327520         134
 pw_charge                               1.294654       31907
 w1_dot                                  1.128192       39313
 racc0mu_acc                             1.098642       32267
 map_backward                            1.030586        4838
 w1_projall                              1.029465       29867
 apply_precond                           1.027915      223642
 w1_daxpy                                0.993928      178844
 brmix                                   0.943887         134
 w1_gaxpy                                0.848851      170791
 proall                                  0.829650          11
 acc_init_cusolver                       0.785000           1
 fft_gq                                  0.721760         134
 orth1                                   0.706724       37787
 dfftw_execute                           0.691347        1659
 vhamil                                  0.618419      147167
 m_alltoallv_z                           0.578684        5156
 wavpre_noio                             0.555715          10
 map_scatter                             0.506848        5156
 map_forward                             0.503474        4358
 overl_mu                                0.500622       32267
 m_bcast_z                               0.445286       10449
 i1                                      0.424500       23098
 zhegv                                   0.396140       50109
 map_gather                              0.365752        5156
 setg0                                   0.359045         156
 stufak                                  0.357463          11
 choleski                                0.347619        1072
 overl                                   0.285466       33932
 broyd                                   0.180005         134
 acc_cufft_makeplans                     0.160813           3
 acc_cufft_makeplan                      0.160803          19
 sphpro_fast                             0.160652          12
 m_bcast_d                               0.152113       18673
 ggemm                                   0.148948       11569
 densta                                  0.089539         139
 lincom                                  0.066740        2176
 brget                                   0.062018        5615
 forhar                                  0.059687          22
 strelo                                  0.051459          11
 strehar                                 0.035966          11
 forloc                                  0.030139          11
 brsav                                   0.018703        1585
 pothar                                  0.016448         156
 fewald                                  0.013133          11
 strkin                                  0.012470          11
 chggra                                  0.011998          11
 truncate_high_frequency_w1              0.011453      151967
 rsp                                     0.010920          11
 brpre                                   0.008182         268
 inisym                                  0.004631           1
 vectorpot                               0.000725         135
 set_dd_magatom                          0.000642         156
 brgrid                                  0.000444           1
 rcp                                     0.000294          11
 shift_bands_between_low_high            0.000138         984
 posmap                                  0.000070           2
 crpa_reader                             0.000029           1
 potlok_metagga                          0.000013         145
 rotate_active_occupied_orbital          0.000006          11
 redis_pw_over_bands                     0.000000          11
 ---------------------------------------------------------------
 
Profiling took   0.526314  0.376864  0.003391  0.003313 seconds
Profiling took   0.429267 seconds
