 vasp.6.3.2 27Jun22 (build Jul  3 2023 11:46:21) complex                         
 executed on    LinuxNV_CrayMPICH date 2024.04.22  02:20:19
 running on    4 total cores
 distrk:  each k-point on    4 cores,    1 groups
 distr:  one band on NCORE=   1 cores,    4 groups


--------------------------------------------------------------------------------------------------------


 INCAR:
   ALGO = Normal
   EDIFF = 1e-05
   ENCUT = 520.0
   IBRION = -1
   ISIF = 3
   ISMEAR = -5
   ISPIN = 2
   LAECHG = True
   LASPH = True
   LCHARG = True
   LORBIT = 11
   LREAL = Auto
   LVHAR = True
   LWAVE = False
   MAGMOM = 1*7.0 4*5.0 1*0.6
   NELM = 1000
   NSW = 0
   PREC = Accurate
   SIGMA = 0.05

 POTCAR:    PAW_PBE Gd 23Dec2003                  
 POTCAR:    PAW_PBE Ni_pv 06Sep2000               
 POTCAR:    PAW_PBE Au 04Oct2007                  
 POTCAR:    PAW_PBE Gd 23Dec2003                  
   SHA256 =  58854b40b4643190560b0e2b62d2ab46bea96585f82c6231a0f4f44b8c3188dc Gd/POTCAR             
   COPYR  = (c) Copyright 23Dec2003 Georg Kresse                                                    
   COPYR  = This file is part of the software VASP. Any use, copying, and all other rights are regul
   COPYR  = If you do not have a valid VASP license, you may not use, copy or distribute this file. 
   VRHFIN =Gd : [core=Xe4]                                                                          
   LEXCH  = PE                                                                                      
   EATOM  =  3047.6032 eV,  223.9925 Ry                                                             
                                                                                                    
   TITEL  = PAW_PBE Gd 23Dec2003                                                                    
   LULTRA =        F    use ultrasoft PP ?                                                          
   IUNSCR =        1    unscreen: 0-lin 1-nonlin 2-no                                               
   RPACOR =    2.300    partial core radius                                                         
   POMASS =  157.250; ZVAL   =   18.000    mass and valenz                                          
   RCORE  =    2.800    outmost cutoff radius                                                       
   RWIGS  =    2.800; RWIGS  =    1.482    wigner-seitz radius (au A)                               
   ENMAX  =  256.472; ENMIN  =  192.354 eV                                                          
   RCLOC  =    2.316    cutoff for local pot                                                        
   LCOR   =        T    correct aug charges                                                         
   LPAW   =        T    paw PP                                                                      
   EAUG   =  537.243                                                                                
   DEXC   =    0.000                                                                                
   RMAX   =    2.857    core radius for proj-oper                                                   
   RAUG   =    1.300    factor for augmentation sphere                                              
   RDEP   =    2.921    radius for radial grids                                                     
   RDEPT  =    2.247    core radius for aug-charge                                                  
                                                                                                    
   Atomic configuration                                                                             
   14 entries                                                                                       
     n  l   j            E        occ.                                                              
     1  0  0.50    -50087.2354   2.0000                                                             
     2  0  0.50     -8269.2182   2.0000                                                             
     2  1  1.50     -7357.3672   6.0000                                                             
     3  0  0.50     -1833.2681   2.0000                                                             
     3  1  1.50     -1550.9376   6.0000                                                             
     3  2  2.50     -1178.7204  10.0000                                                             
     4  0  0.50      -369.2978   2.0000                                                             
     4  1  1.50      -276.2601   6.0000                                                             
     4  2  2.50      -147.6611  10.0000                                                             
     5  0  0.50       -49.7260   2.0000                                                             
     6  0  0.50        -4.1254   2.0000                                                             
     5  1  1.50       -27.2538   6.0000                                                             
     5  2  2.50        -2.5337   1.0000                                                             
     4  3  2.50        -8.7140   7.0000                                                             
   Description                                                                                      
     l       E           TYP  RCUT    TYP  RCUT                                                     
     0    -49.7259557     23  2.400                                                                 
     0     -4.1254107     23  2.400                                                                 
     1    -27.2537518     23  2.400                                                                 
     1     20.4087390     23  2.400                                                                 
     2     -2.5337329     23  2.500                                                                 
     2     13.6058260     23  2.500                                                                 
     3     -8.7140389     23  2.800                                                                 
     3     -9.5240782     23  2.800                                                                 
  local pseudopotential read in
  partial core-charges read in
  partial kinetic energy density read in
  atomic valenz-charges read in
  non local Contribution for L=            0  read in
    real space projection operators read in
  non local Contribution for L=            0  read in
    real space projection operators read in
  non local Contribution for L=            1  read in
    real space projection operators read in
  non local Contribution for L=            1  read in
    real space projection operators read in
  non local Contribution for L=            2  read in
    real space projection operators read in
  non local Contribution for L=            2  read in
    real space projection operators read in
  non local Contribution for L=            3  read in
    real space projection operators read in
  non local Contribution for L=            3  read in
    real space projection operators read in
    PAW grid and wavefunctions read in
 
   number of l-projection  operators is LMAX  =            8
   number of lm-projection operators is LMMAX =           32
 
 POTCAR:    PAW_PBE Ni_pv 06Sep2000               
   SHA256 =  368cd815a19284a5fda64519f43fef792dad8376deb9e2da41aae78b997dc50e Ni_pv/POTCAR          
   COPYR  = (c) Copyright 06Sep2000 Georg Kresse                                                    
   COPYR  = This file is part of the software VASP. Any use, copying, and all other rights are regul
   COPYR  = If you do not have a valid VASP license, you may not use, copy or distribute this file. 
   VRHFIN =Ni:                                                                                      
   LEXCH  = PE                                                                                      
   EATOM  =  3501.1230 eV,  257.3253 Ry                                                             
                                                                                                    
   TITEL  = PAW_PBE Ni_pv 06Sep2000                                                                 
   LULTRA =        F    use ultrasoft PP ?                                                          
   IUNSCR =        1    unscreen: 0-lin 1-nonlin 2-no                                               
   RPACOR =    1.500    partial core radius                                                         
   POMASS =   58.690; ZVAL   =   16.000    mass and valenz                                          
   RCORE  =    2.000    outmost cutoff radius                                                       
   RWIGS  =    2.000; RWIGS  =    1.058    wigner-seitz radius (au A)                               
   ENMAX  =  367.986; ENMIN  =  275.989 eV                                                          
   RCLOC  =    1.301    cutoff for local pot                                                        
   LCOR   =        T    correct aug charges                                                         
   LPAW   =        T    paw PP                                                                      
   EAUG   =  703.443                                                                                
   DEXC   =    0.000                                                                                
   RMAX   =    2.041    core radius for proj-oper                                                   
   RAUG   =    1.300    factor for augmentation sphere                                              
   RDEP   =    2.103    radius for radial grids                                                     
   RDEPT  =    1.618    core radius for aug-charge                                                  
                                                                                                    
   Atomic configuration                                                                             
    8 entries                                                                                       
     n  l   j            E        occ.                                                              
     1  0  0.50     -8206.4253   2.0000                                                             
     2  0  0.50      -976.1748   2.0000                                                             
     2  1  1.50      -839.0571   6.0000                                                             
     3  0  0.50      -105.9991   2.0000                                                             
     3  1  1.50       -66.4603   6.0000                                                             
     3  2  2.50        -4.6458   9.0000                                                             
     4  0  0.50        -4.4926   1.0000                                                             
     4  3  2.50        -1.3606   0.0000                                                             
   Description                                                                                      
     l       E           TYP  RCUT    TYP  RCUT                                                     
     1    -66.4602962     23  1.700                                                                 
     1     -1.3605826     23  1.700                                                                 
     2     -4.6457867     23  2.000                                                                 
     2     -6.0063693     23  2.000                                                                 
     0     -4.4925576     23  1.900                                                                 
     0     16.3626226     23  1.900                                                                 
  local pseudopotential read in
  partial core-charges read in
  partial kinetic energy density read in
  atomic valenz-charges read in
  non local Contribution for L=            1  read in
    real space projection operators read in
  non local Contribution for L=            1  read in
    real space projection operators read in
  non local Contribution for L=            2  read in
    real space projection operators read in
  non local Contribution for L=            2  read in
    real space projection operators read in
  non local Contribution for L=            0  read in
    real space projection operators read in
  non local Contribution for L=            0  read in
    real space projection operators read in
    PAW grid and wavefunctions read in
 
   number of l-projection  operators is LMAX  =            6
   number of lm-projection operators is LMMAX =           18
 
 POTCAR:    PAW_PBE Au 04Oct2007                  
   SHA256 =  d0044ae04e2bdce24051b198fc5c053d722a5bc6fe3c3b100514a13fc5d2db88 Au/POTCAR             
   COPYR  = (c) Copyright 04Oct2007 Georg Kresse                                                    
   COPYR  = This file is part of the software VASP. Any use, copying, and all other rights are regul
   COPYR  = If you do not have a valid VASP license, you may not use, copy or distribute this file. 
   VRHFIN =Au: s1d10                                                                                
   LEXCH  = PE                                                                                      
   EATOM  =   926.0867 eV,   68.0654 Ry                                                             
                                                                                                    
   TITEL  = PAW_PBE Au 04Oct2007                                                                    
   LULTRA =        F    use ultrasoft PP ?                                                          
   IUNSCR =        1    unscreen: 0-lin 1-nonlin 2-no                                               
   RPACOR =    2.330    partial core radius                                                         
   POMASS =  196.966; ZVAL   =   11.000    mass and valenz                                          
   RCORE  =    2.500    outmost cutoff radius                                                       
   RWIGS  =    2.840; RWIGS  =    1.503    wigner-seitz radius (au A)                               
   ENMAX  =  229.943; ENMIN  =  172.457 eV                                                          
   ICORE  =        3    local potential                                                             
   LCOR   =        T    correct aug charges                                                         
   LPAW   =        T    paw PP                                                                      
   EAUG   =  356.670                                                                                
   DEXC   =    0.000                                                                                
   RMAX   =    2.562    core radius for proj-oper                                                   
   RAUG   =    1.300    factor for augmentation sphere                                              
   RDEP   =    2.598    radius for radial grids                                                     
   RDEPT  =    2.193    core radius for aug-charge                                                  
                                                                                                    
   Atomic configuration                                                                             
   16 entries                                                                                       
     n  l   j            E        occ.                                                              
     1  0  0.50    -80748.5001   2.0000                                                             
     2  0  0.50    -14244.7466   2.0000                                                             
     2  1  1.50    -12310.9591   6.0000                                                             
     3  0  0.50     -3362.1768   2.0000                                                             
     3  1  1.50     -2801.5463   6.0000                                                             
     3  2  2.50     -2203.8206  10.0000                                                             
     4  0  0.50      -729.8168   2.0000                                                             
     4  1  1.50      -546.0527   6.0000                                                             
     4  2  2.50      -325.7302  10.0000                                                             
     4  3  3.50       -81.1472  14.0000                                                             
     5  0  0.50      -108.3201   2.0000                                                             
     5  1  1.50       -59.7479   6.0000                                                             
     5  2  2.50        -6.8783  10.0000                                                             
     6  0  0.50        -5.7602   1.0000                                                             
     6  1  1.50        -6.8029   0.0000                                                             
     5  3  2.50        -1.3606   0.0000                                                             
   Description                                                                                      
     l       E           TYP  RCUT    TYP  RCUT                                                     
     2     -6.8782861     23  2.500                                                                 
     2     -8.2388687     23  2.500                                                                 
     0     -5.7601759     23  2.500                                                                 
     0     -0.8493231     23  2.500                                                                 
     1     -2.7211652     23  2.500                                                                 
     1     27.2116520     23  2.500                                                                 
     3     -1.3605826     23  2.500                                                                 
  local pseudopotential read in
  partial core-charges read in
  partial kinetic energy density read in
  atomic valenz-charges read in
  non local Contribution for L=            2  read in
    real space projection operators read in
  non local Contribution for L=            2  read in
    real space projection operators read in
  non local Contribution for L=            0  read in
    real space projection operators read in
  non local Contribution for L=            0  read in
    real space projection operators read in
  non local Contribution for L=            1  read in
    real space projection operators read in
  non local Contribution for L=            1  read in
    real space projection operators read in
    PAW grid and wavefunctions read in
 
   number of l-projection  operators is LMAX  =            6
   number of lm-projection operators is LMMAX =           18
 
 -----------------------------------------------------------------------------
|                                                                             |
|               ----> ADVICE to this user running VASP <----                  |
|                                                                             |
|     You have a (more or less) 'small supercell' and for smaller cells       |
|     it is recommended to use the reciprocal-space projection scheme!        |
|     The real-space optimization is not efficient for small cells and it     |
|     is also less accurate ...                                               |
|     Therefore, set LREAL=.FALSE. in the INCAR file.                         |
|                                                                             |
 -----------------------------------------------------------------------------

 Optimization of the real space projectors (new method)

 maximal supplied QI-value         = 13.42
 optimisation between [QCUT,QGAM] = [ 11.67, 23.35] = [ 38.16,152.62] Ry 
 Optimized for a Real-space Cutoff    1.63 Angstroem

   l    n(q)    QCUT    max X(q) W(low)/X(q) W(high)/X(q)  e(spline) 
   0     11    11.673    10.501    0.14E-04    0.17E-05    0.21E-07
   0     11    11.673     9.148    0.21E-04    0.32E-05    0.45E-07
   1     11    11.673     4.035    0.33E-05    0.11E-04    0.84E-07
   1     11    11.673     4.388    0.11E-04    0.47E-04    0.34E-06
   2     10    11.673    20.656    0.12E-04    0.28E-04    0.54E-06
   2     10    11.673    12.651    0.11E-04    0.26E-04    0.51E-06
   3     10    11.673    61.921    0.19E-03    0.22E-03    0.23E-06
   3     10    11.673    48.328    0.20E-03    0.23E-03    0.23E-06
 Optimization of the real space projectors (new method)

 maximal supplied QI-value         = 18.90
 optimisation between [QCUT,QGAM] = [ 11.53, 23.24] = [ 37.21,151.29] Ry 
 Optimized for a Real-space Cutoff    1.36 Angstroem

   l    n(q)    QCUT    max X(q) W(low)/X(q) W(high)/X(q)  e(spline) 
   1      9    11.527     2.836    0.16E-04    0.30E-04    0.95E-07
   1      9    11.527     4.023    0.73E-04    0.81E-04    0.21E-06
   2      9    11.527    73.368    0.15E-03    0.29E-03    0.28E-06
   2      9    11.527    69.010    0.15E-03    0.29E-03    0.29E-06
   0      9    11.527    54.797    0.43E-04    0.28E-04    0.85E-07
   0      9    11.527    24.266    0.33E-04    0.24E-04    0.75E-07
 Optimization of the real space projectors (new method)

 maximal supplied QI-value         = 15.12
 optimisation between [QCUT,QGAM] = [ 11.64, 23.28] = [ 37.95,151.78] Ry 
 Optimized for a Real-space Cutoff    1.49 Angstroem

   l    n(q)    QCUT    max X(q) W(low)/X(q) W(high)/X(q)  e(spline) 
   2      9    11.641    60.898    0.24E-03    0.10E-03    0.19E-06
   2      9    11.641    58.894    0.25E-03    0.10E-03    0.19E-06
   0     10    11.641   109.617    0.73E-04    0.33E-04    0.11E-06
   0     10    11.641    75.026    0.71E-04    0.32E-04    0.11E-06
   1     10    11.641    16.344    0.27E-04    0.97E-04    0.16E-06
   1     10    11.641    10.160    0.23E-04    0.77E-04    0.13E-06
  PAW_PBE Gd 23Dec2003                  :
 energy of atom  1       EATOM=-3047.6032
 kinetic energy error for atom=    0.0019 (will be added to EATOM!!)
  PAW_PBE Ni_pv 06Sep2000               :
 energy of atom  2       EATOM=-3501.1230
 kinetic energy error for atom=    0.0575 (will be added to EATOM!!)
  PAW_PBE Au 04Oct2007                  :
 energy of atom  3       EATOM= -926.0867
 kinetic energy error for atom=    0.0034 (will be added to EATOM!!)
 
 
 POSCAR: Gd1 Ni4 Au1
  positions in direct lattice
  No initial velocities read in
 exchange correlation table for  LEXCH =        8
   RHO(1)=    0.500       N(1)  =     2000
   RHO(2)=  100.500       N(2)  =     4000

 VTST: version 4.2, (08/11/21)

 CHAIN: initializing optimizer
 
 OPT: Using VASP Dynamics algorithm
 CHAIN: Read ICHAIN             0
 
 POSCAR: Gd1 Ni4 Au1
  positions in direct lattice
  No initial velocities read in
 


--------------------------------------------------------------------------------------------------------


 ion  position               nearest neighbor table
   1  0.000  0.000  0.000-   2 2.91   3 2.91   2 2.91   5 2.91   4 2.91   5 2.91   3 2.91   4 2.91
                             5 2.91   2 2.91   3 2.91   4 2.91   6 3.04   6 3.04   6 3.04   6 3.04
   2  0.625  0.625  0.125-   3 2.48   4 2.48   5 2.48   3 2.48   4 2.48   5 2.48   6 2.91   6 2.91
                             6 2.91   1 2.91   1 2.91   1 2.91
   3  0.625  0.125  0.625-   2 2.48   4 2.48   5 2.48   4 2.48   2 2.48   5 2.48   6 2.91   6 2.91
                             6 2.91   1 2.91   1 2.91   1 2.91
   4  0.125  0.625  0.625-   2 2.48   3 2.48   5 2.48   3 2.48   2 2.48   5 2.48   6 2.91   6 2.91
                             6 2.91   1 2.91   1 2.91   1 2.91
   5  0.625  0.625  0.625-   2 2.48   3 2.48   4 2.48   4 2.48   3 2.48   2 2.48   6 2.91   6 2.91
                             6 2.91   1 2.91   1 2.91   1 2.91
   6  0.250  0.250  0.250-   2 2.91   3 2.91   4 2.91   3 2.91   4 2.91   5 2.91   2 2.91   4 2.91
                             5 2.91   2 2.91   3 2.91   5 2.91   1 3.04   1 3.04   1 3.04   1 3.04
 
  LATTYP: Found a face centered cubic cell.
 ALAT       =     7.0225940000
  
  Lattice vectors:
  
 A1 = (   0.0000000000,   3.5112970000,   3.5112970000)
 A2 = (   3.5112970000,   0.0000000000,   3.5112970000)
 A3 = (   3.5112970000,   3.5112970000,   0.0000000000)


Analysis of symmetry for initial positions (statically):
=====================================================================
 Subroutine PRICEL returns:
 Original cell was already a primitive cell.
 

 Routine SETGRP: Setting up the symmetry group for a 
 face centered cubic supercell.


 Subroutine GETGRP returns: Found 24 space group operations
 (whereof 24 operations were pure point group operations)
 out of a pool of 48 trial point group operations.


The static configuration has the point symmetry T_d .


Analysis of symmetry for dynamics (positions and initial velocities):
=====================================================================
 Subroutine PRICEL returns:
 Original cell was already a primitive cell.
 

 Routine SETGRP: Setting up the symmetry group for a 
 face centered cubic supercell.


 Subroutine GETGRP returns: Found 24 space group operations
 (whereof 24 operations were pure point group operations)
 out of a pool of 48 trial point group operations.


The dynamic configuration has the point symmetry T_d .


Analysis of structural, dynamic, and magnetic symmetry:
=====================================================================
 Subroutine PRICEL returns:
 Original cell was already a primitive cell.
 

 Routine SETGRP: Setting up the symmetry group for a 
 face centered cubic supercell.


 Subroutine GETGRP returns: Found 24 space group operations
 (whereof 24 operations were pure point group operations)
 out of a pool of 48 trial point group operations.


The overall configuration has the point symmetry T_d .


 Subroutine INISYM returns: Found 24 space group operations
 (whereof 24 operations are pure point group operations),
 and found     1 'primitive' translations


----------------------------------------------------------------------------------------

                                     Primitive cell                                     

  volume of cell :      86.5830

  direct lattice vectors                    reciprocal lattice vectors
     0.000000000  3.511297000  3.511297000    -0.142397524  0.142397524  0.142397524
     3.511297000  0.000000000  3.511297000     0.142397524 -0.142397524  0.142397524
     3.511297000  3.511297000  0.000000000     0.142397524  0.142397524 -0.142397524

  length of vectors
     4.965723839  4.965723839  4.965723839     0.246639747  0.246639747  0.246639747

  position of ions in fractional coordinates (direct lattice)
     0.000000000  0.000000000  0.000000000
     0.624907000  0.624907000  0.125279000
     0.624907000  0.125279000  0.624907000
     0.125279000  0.624907000  0.624907000
     0.624907000  0.624907000  0.624907000
     0.250000000  0.250000000  0.250000000

  ion indices of the primitive-cell ions
   primitive index   ion index
                 1           1
                 2           2
                 3           3
                 4           4
                 5           5
                 6           6

----------------------------------------------------------------------------------------

 
 
 KPOINTS: Kpoints from vasprun.xml                

Automatic generation of k-mesh.
 Grid dimensions read from file:
 generate k-points for:    6    6    6

 Generating k-lattice:

  Cartesian coordinates                     Fractional coordinates (reciprocal lattice)
    -0.023732921  0.023732921  0.023732921     0.166666667  0.000000000  0.000000000
     0.023732921 -0.023732921  0.023732921     0.000000000  0.166666667 -0.000000000
     0.023732921  0.023732921 -0.023732921    -0.000000000 -0.000000000  0.166666667

  Length of vectors
     0.041106625  0.041106625  0.041106625

  Shift w.r.t. Gamma in fractional coordinates (k-lattice)
     0.500000000  0.500000000  0.500000000

 TETIRR: Found    403 inequivalent tetrahedra from     5184
 
 Subroutine IBZKPT returns following result:
 ===========================================
 
 Found     28 irreducible k-points:
 
 Following reciprocal coordinates:
            Coordinates               Weight
  0.083333  0.083333  0.083333      8.000000
  0.250000  0.083333  0.083333     24.000000
  0.416667  0.083333  0.083333     24.000000
 -0.416667  0.083333  0.083333     24.000000
 -0.250000  0.083333  0.083333     24.000000
 -0.083333  0.083333  0.083333     24.000000
  0.250000  0.250000  0.083333     24.000000
  0.416667  0.250000  0.083333     48.000000
 -0.416667  0.250000  0.083333     48.000000
 -0.250000  0.250000  0.083333     48.000000
 -0.083333  0.250000  0.083333     48.000000
  0.416667  0.416667  0.083333     24.000000
 -0.416667  0.416667  0.083333     48.000000
 -0.250000  0.416667  0.083333     48.000000
 -0.083333  0.416667  0.083333     48.000000
 -0.416667 -0.416667  0.083333     24.000000
 -0.250000 -0.416667  0.083333     48.000000
 -0.250000 -0.250000  0.083333     24.000000
  0.250000  0.250000  0.250000      8.000000
  0.416667  0.250000  0.250000     24.000000
 -0.416667  0.250000  0.250000     24.000000
 -0.250000  0.250000  0.250000     24.000000
  0.416667  0.416667  0.250000     24.000000
 -0.416667  0.416667  0.250000     48.000000
 -0.250000  0.416667  0.250000     48.000000
 -0.416667 -0.416667  0.250000     24.000000
  0.416667  0.416667  0.416667      8.000000
 -0.416667  0.416667  0.416667     24.000000
 
 Following cartesian coordinates:
            Coordinates               Weight
  0.011866  0.011866  0.011866      8.000000
 -0.011866  0.035599  0.035599     24.000000
 -0.035599  0.059332  0.059332     24.000000
  0.083065 -0.059332 -0.059332     24.000000
  0.059332 -0.035599 -0.035599     24.000000
  0.035599 -0.011866 -0.011866     24.000000
  0.011866  0.011866  0.059332     24.000000
 -0.011866  0.035599  0.083065     48.000000
  0.106798 -0.083065 -0.035599     48.000000
  0.083065 -0.059332 -0.011866     48.000000
  0.059332 -0.035599  0.011866     48.000000
  0.011866  0.011866  0.106798     24.000000
  0.130531 -0.106798 -0.011866     48.000000
  0.106798 -0.083065  0.011866     48.000000
  0.083065 -0.059332  0.035599     48.000000
  0.011866  0.011866 -0.130531     24.000000
 -0.011866  0.035599 -0.106798     48.000000
  0.011866  0.011866 -0.083065     24.000000
  0.035599  0.035599  0.035599      8.000000
  0.011866  0.059332  0.059332     24.000000
  0.130531 -0.059332 -0.059332     24.000000
  0.106798 -0.035599 -0.035599     24.000000
  0.035599  0.035599  0.083065     24.000000
  0.154264 -0.083065 -0.035599     48.000000
  0.130531 -0.059332 -0.011866     48.000000
  0.035599  0.035599 -0.154264     24.000000
  0.059332  0.059332  0.059332      8.000000
  0.177997 -0.059332 -0.059332     24.000000
 


--------------------------------------------------------------------------------------------------------




 Dimension of arrays:
   k-points           NKPTS =     28   k-points in BZ     NKDIM =     28   number of bands    NBANDS=     72
   number of dos      NEDOS =    301   number of ions     NIONS =      6
   non local maximal  LDIM  =      8   non local SUM 2l+1 LMDIM =     32
   total plane-waves  NPLWV =  64000
   max r-space proj   IRMAX =  13390   max aug-charges    IRDMAX=  45397
   dimension x,y,z NGX =    40 NGY =   40 NGZ =   40
   dimension x,y,z NGXF=    80 NGYF=   80 NGZF=   80
   support grid    NGXF=    80 NGYF=   80 NGZF=   80
   ions per type =               1   4   1
   NGX,Y,Z   is equivalent  to a cutoff of  13.39, 13.39, 13.39 a.u.
   NGXF,Y,Z  is equivalent  to a cutoff of  26.78, 26.78, 26.78 a.u.

 SYSTEM =  unknown system                          
 POSCAR =  Gd1 Ni4 Au1                             

 Startparameter for this run:
   NWRITE =      2    write-flag & timer
   PREC   = accura    normal or accurate (medium, high low for compatibility)
   ISTART =      0    job   : 0-new  1-cont  2-samecut
   ICHARG =      2    charge: 1-file 2-atom 10-const
   ISPIN  =      2    spin polarized calculation?
   LNONCOLLINEAR =      F non collinear calculations
   LSORBIT =      F    spin-orbit coupling
   INIWAV =      1    electr: 0-lowe 1-rand  2-diag
   LASPH  =      T    aspherical Exc in radial PAW
 Electronic Relaxation 1
   ENCUT  =  520.0 eV  38.22 Ry    6.18 a.u.   9.23  9.23  9.23*2*pi/ulx,y,z
   ENINI  =  520.0     initial cutoff
   ENAUG  =  703.4 eV  augmentation charge cutoff
   NELM   =   1000;   NELMIN=  2; NELMDL= -5     # of ELM steps 
   EDIFF  = 0.1E-04   stopping-criterion for ELM
   LREAL  =      T    real-space projection
   NLSPLINE    = F    spline interpolate recip. space projectors
   LCOMPAT=      F    compatible to vasp.4.4
   GGA_COMPAT  = T    GGA compatible to vasp.4.4-vasp.4.6
   LMAXPAW     = -100 max onsite density
   LMAXMIX     =    2 max onsite mixed and CHGCAR
   VOSKOWN=      0    Vosko Wilk Nusair interpolation
   ROPT   =   -0.00025  -0.00025  -0.00025
 Ionic relaxation
   EDIFFG = 0.1E-03   stopping-criterion for IOM
   NSW    =      0    number of steps for IOM
   NBLOCK =      1;   KBLOCK =      1    inner block; outer block 
   IBRION =     -1    ionic relax: 0-MD 1-quasi-New 2-CG
   NFREE  =      0    steps in history (QN), initial steepest desc. (CG)
   ISIF   =      3    stress and relaxation
   IWAVPR =     10    prediction:  0-non 1-charg 2-wave 3-comb
   ISYM   =      2    0-nonsym 1-usesym 2-fastsym
   LCORR  =      T    Harris-Foulkes like correction to forces

   POTIM  = 0.5000    time-step for ionic-motion
   TEIN   =    0.0    initial temperature
   TEBEG  =    0.0;   TEEND  =   0.0 temperature during run
   SMASS  =  -3.00    Nose mass-parameter (am)
   estimated Nose-frequenzy (Omega)   =  0.10E-29 period in steps = 0.13E+47 mass=  -0.564E-27a.u.
   SCALEE = 1.0000    scale energy and forces
   NPACO  =    256;   APACO  = 10.0  distance and # of slots for P.C.
   PSTRESS=    0.0 pullay stress

  Mass of Ions in am
   POMASS = 157.25 58.69196.97
  Ionic Valenz
   ZVAL   =  18.00 16.00 11.00
  Atomic Wigner-Seitz radii
   RWIGS  =  -1.00 -1.00 -1.00
  virtual crystal weights 
   VCA    =   1.00  1.00  1.00
   NELECT =      93.0000    total number of electrons
   NUPDOWN=      -1.0000    fix difference up-down

 DOS related values:
   EMIN   =  10.00;   EMAX   =-10.00  energy-range for DOS
   EFERMI =   0.00
   ISMEAR =    -5;   SIGMA  =   0.05  broadening in eV -4-tet -1-fermi 0-gaus

 Electronic relaxation 2 (details)
   IALGO  =     38    algorithm
   LDIAG  =      T    sub-space diagonalisation (order eigenvalues)
   LSUBROT=      F    optimize rotation matrix (better conditioning)
   TURBO    =      0    0=normal 1=particle mesh
   IRESTART =      0    0=no restart 2=restart with 2 vectors
   NREBOOT  =      0    no. of reboots
   NMIN     =      0    reboot dimension
   EREF     =   0.00    reference energy to select bands
   IMIX   =      4    mixing-type and parameters
     AMIX     =   0.40;   BMIX     =  1.00
     AMIX_MAG =   1.60;   BMIX_MAG =  1.00
     AMIN     =   0.10
     WC   =   100.;   INIMIX=   1;  MIXPRE=   1;  MAXMIX= -45

 Intra band minimization:
   WEIMIN = 0.0000     energy-eigenvalue tresh-hold
   EBREAK =  0.35E-07  absolut break condition
   DEPER  =   0.30     relativ break condition  

   TIME   =   0.40     timestep for ELM

  volume/ion in A,a.u.               =      14.43        97.38
  Fermi-wavevector in a.u.,A,eV,Ry     =   1.676582  3.168281 38.245007  2.810929
  Thomas-Fermi vector in A             =   2.761000
 
 Write flags
   LWAVE        =      F    write WAVECAR
   LDOWNSAMPLE  =      F    k-point downsampling of WAVECAR
   LCHARG       =      T    write CHGCAR
   LVTOT        =      F    write LOCPOT, total local potential
   LVHAR        =      T    write LOCPOT, Hartree potential only
   LELF         =      F    write electronic localiz. function (ELF)
   LORBIT       =     11    0 simple, 1 ext, 2 COOP (PROOUT), +10 PAW based schemes


 Dipole corrections
   LMONO  =      F    monopole corrections only (constant potential shift)
   LDIPOL =      F    correct potential (dipole corrections)
   IDIPOL =      0    1-x, 2-y, 3-z, 4-all directions 
   EPSILON=  1.0000000 bulk dielectric constant

 Exchange correlation treatment:
   GGA     =    --    GGA type
   LEXCH   =     8    internal setting for exchange type
   LIBXC   =     F    Libxc                    
   VOSKOWN =     0    Vosko Wilk Nusair interpolation
   LHFCALC =     F    Hartree Fock is set to
   LHFONE  =     F    Hartree Fock one center treatment
   AEXX    =    0.0000 exact exchange contribution

 Linear response parameters
   LEPSILON=     F    determine dielectric tensor
   LRPA    =     F    only Hartree local field effects (RPA)
   LNABLA  =     F    use nabla operator in PAW spheres
   LVEL    =     F    velocity operator in full k-point grid
   CSHIFT  =0.1000    complex shift for real part using Kramers Kronig
   OMEGAMAX=  -1.0    maximum frequency
   DEG_THRESHOLD= 0.2000000E-02 threshold for treating states as degnerate
   RTIME   =   -0.100 relaxation time in fs
  (WPLASMAI=    0.000 imaginary part of plasma frequency in eV, 0.658/RTIME)
   DFIELD  = 0.0000000 0.0000000 0.0000000 field for delta impulse in time
 
  Optional k-point grid parameters
   LKPOINTS_OPT  =     F    use optional k-point grid
   KPOINTS_OPT_MODE=     1    mode for optional k-point grid
 
 Orbital magnetization related:
   ORBITALMAG=     F  switch on orbital magnetization
   LCHIMAG   =     F  perturbation theory with respect to B field
   DQ        =  0.001000  dq finite difference perturbation B field
   LLRAUG    =     F  two centre corrections for induced B field



--------------------------------------------------------------------------------------------------------


 Static calculation
 charge density and potential will be updated during run
 spin polarized calculation
 Variant of blocked Davidson
 Davidson routine will perform the subspace rotation
 perform sub-space diagonalisation
    after iterative eigenvector-optimisation
 modified Broyden-mixing scheme, WC =      100.0
 initial mixing is a Kerker type mixing with AMIX =  0.4000 and BMIX =      1.0000
 Hartree-type preconditioning will be used
 using additional bands            25
 real space projection scheme for non local part
 use partial core corrections
 calculate Harris-corrections to forces 
   (improved forces if not selfconsistent)
 use gradient corrections 
 use of overlap-Matrix (Vanderbilt PP)
 Fermi weights with tetrahedron method with Bloechl corrections


--------------------------------------------------------------------------------------------------------


  energy-cutoff  :      520.00
  volume of cell :       86.58
      direct lattice vectors                 reciprocal lattice vectors
     0.000000000  3.511297000  3.511297000    -0.142397524  0.142397524  0.142397524
     3.511297000  0.000000000  3.511297000     0.142397524 -0.142397524  0.142397524
     3.511297000  3.511297000  0.000000000     0.142397524  0.142397524 -0.142397524

  length of vectors
     4.965723839  4.965723839  4.965723839     0.246639747  0.246639747  0.246639747


 
 k-points in units of 2pi/SCALE and weight: Kpoints from vasprun.xml                
   0.01186646  0.01186646  0.01186646       0.009
  -0.01186646  0.03559938  0.03559938       0.028
  -0.03559938  0.05933230  0.05933230       0.028
   0.08306522 -0.05933230 -0.05933230       0.028
   0.05933230 -0.03559938 -0.03559938       0.028
   0.03559938 -0.01186646 -0.01186646       0.028
   0.01186646  0.01186646  0.05933230       0.028
  -0.01186646  0.03559938  0.08306522       0.056
   0.10679814 -0.08306522 -0.03559938       0.056
   0.08306522 -0.05933230 -0.01186646       0.056
   0.05933230 -0.03559938  0.01186646       0.056
   0.01186646  0.01186646  0.10679814       0.028
   0.13053106 -0.10679814 -0.01186646       0.056
   0.10679814 -0.08306522  0.01186646       0.056
   0.08306522 -0.05933230  0.03559938       0.056
   0.01186646  0.01186646 -0.13053106       0.028
  -0.01186646  0.03559938 -0.10679814       0.056
   0.01186646  0.01186646 -0.08306522       0.028
   0.03559938  0.03559938  0.03559938       0.009
   0.01186646  0.05933230  0.05933230       0.028
   0.13053106 -0.05933230 -0.05933230       0.028
   0.10679814 -0.03559938 -0.03559938       0.028
   0.03559938  0.03559938  0.08306522       0.028
   0.15426398 -0.08306522 -0.03559938       0.056
   0.13053106 -0.05933230 -0.01186646       0.056
   0.03559938  0.03559938 -0.15426398       0.028
   0.05933230  0.05933230  0.05933230       0.009
   0.17799691 -0.05933230 -0.05933230       0.028
 
 k-points in reciprocal lattice and weights: Kpoints from vasprun.xml                
   0.08333333  0.08333333  0.08333333       0.009
   0.25000000  0.08333333  0.08333333       0.028
   0.41666667  0.08333333  0.08333333       0.028
  -0.41666667  0.08333333  0.08333333       0.028
  -0.25000000  0.08333333  0.08333333       0.028
  -0.08333333  0.08333333  0.08333333       0.028
   0.25000000  0.25000000  0.08333333       0.028
   0.41666667  0.25000000  0.08333333       0.056
  -0.41666667  0.25000000  0.08333333       0.056
  -0.25000000  0.25000000  0.08333333       0.056
  -0.08333333  0.25000000  0.08333333       0.056
   0.41666667  0.41666667  0.08333333       0.028
  -0.41666667  0.41666667  0.08333333       0.056
  -0.25000000  0.41666667  0.08333333       0.056
  -0.08333333  0.41666667  0.08333333       0.056
  -0.41666667 -0.41666667  0.08333333       0.028
  -0.25000000 -0.41666667  0.08333333       0.056
  -0.25000000 -0.25000000  0.08333333       0.028
   0.25000000  0.25000000  0.25000000       0.009
   0.41666667  0.25000000  0.25000000       0.028
  -0.41666667  0.25000000  0.25000000       0.028
  -0.25000000  0.25000000  0.25000000       0.028
   0.41666667  0.41666667  0.25000000       0.028
  -0.41666667  0.41666667  0.25000000       0.056
  -0.25000000  0.41666667  0.25000000       0.056
  -0.41666667 -0.41666667  0.25000000       0.028
   0.41666667  0.41666667  0.41666667       0.009
  -0.41666667  0.41666667  0.41666667       0.028
 
 position of ions in fractional coordinates (direct lattice) 
   0.00000000  0.00000000  0.00000000
   0.62490700  0.62490700  0.12527900
   0.62490700  0.12527900  0.62490700
   0.12527900  0.62490700  0.62490700
   0.62490700  0.62490700  0.62490700
   0.25000000  0.25000000  0.25000000
 
 position of ions in cartesian coordinates  (Angst):
   0.00000000  0.00000000  0.00000000
   2.63412585  2.63412585  4.38846815
   2.63412585  4.38846815  2.63412585
   4.38846815  2.63412585  2.63412585
   4.38846815  4.38846815  4.38846815
   1.75564850  1.75564850  1.75564850
 


--------------------------------------------------------------------------------------------------------


 k-point   1 :   0.0833 0.0833 0.0833  plane waves:    2319
 k-point   2 :   0.2500 0.0833 0.0833  plane waves:    2324
 k-point   3 :   0.4167 0.0833 0.0833  plane waves:    2336
 k-point   4 :  -0.4167 0.0833 0.0833  plane waves:    2336
 k-point   5 :  -0.2500 0.0833 0.0833  plane waves:    2339
 k-point   6 :  -0.0833 0.0833 0.0833  plane waves:    2328
 k-point   7 :   0.2500 0.2500 0.0833  plane waves:    2324
 k-point   8 :   0.4167 0.2500 0.0833  plane waves:    2333
 k-point   9 :  -0.4167 0.2500 0.0833  plane waves:    2334
 k-point  10 :  -0.2500 0.2500 0.0833  plane waves:    2333
 k-point  11 :  -0.0833 0.2500 0.0833  plane waves:    2330
 k-point  12 :   0.4167 0.4167 0.0833  plane waves:    2336
 k-point  13 :  -0.4167 0.4167 0.0833  plane waves:    2330
 k-point  14 :  -0.2500 0.4167 0.0833  plane waves:    2329
 k-point  15 :  -0.0833 0.4167 0.0833  plane waves:    2338
 k-point  16 :  -0.4167-0.4167 0.0833  plane waves:    2321
 k-point  17 :  -0.2500-0.4167 0.0833  plane waves:    2340
 k-point  18 :  -0.2500-0.2500 0.0833  plane waves:    2332
 k-point  19 :   0.2500 0.2500 0.2500  plane waves:    2328
 k-point  20 :   0.4167 0.2500 0.2500  plane waves:    2337
 k-point  21 :  -0.4167 0.2500 0.2500  plane waves:    2328
 k-point  22 :  -0.2500 0.2500 0.2500  plane waves:    2327
 k-point  23 :   0.4167 0.4167 0.2500  plane waves:    2338
 k-point  24 :  -0.4167 0.4167 0.2500  plane waves:    2327
 k-point  25 :  -0.2500 0.4167 0.2500  plane waves:    2319
 k-point  26 :  -0.4167-0.4167 0.2500  plane waves:    2330
 k-point  27 :   0.4167 0.4167 0.4167  plane waves:    2340
 k-point  28 :  -0.4167 0.4167 0.4167  plane waves:    2337

 maximum and minimum number of plane-waves per node :      2340     2319

 maximum number of plane-waves:      2340
 maximum index in each direction: 
   IXMAX=    9   IYMAX=    9   IZMAX=    9
   IXMIN=   -9   IYMIN=   -9   IZMIN=   -9


 serial   3D FFT for wavefunctions
 parallel 3D FFT for charge:
    minimum data exchange during FFTs selected (reduces bandwidth)


 total amount of memory used by VASP MPI-rank0   103101. kBytes
=======================================================================

   base      :      30000. kBytes
   nonlr-proj:      11447. kBytes
   fftplans  :       4661. kBytes
   grid      :      16665. kBytes
   one-center:        589. kBytes
   wavefun   :      39739. kBytes
 
     INWAV:  cpu time      0.0003: real time      0.0004
 Broyden mixing: mesh for mixing (old mesh)
   NGX = 19   NGY = 19   NGZ = 19
  (NGX  = 80   NGY  = 80   NGZ  = 80)
  gives a total of   6859 points

 initial charge density was supplied:
 charge density of overlapping atoms calculated
 number of electron      93.0000000 magnetization      27.6000000
 keeping initial charge density in first step


--------------------------------------------------------------------------------------------------------


 Maximum index for non-local projection operator         12887
 Maximum index for augmentation-charges         10899 (set IRDMAX)


--------------------------------------------------------------------------------------------------------


 First call to EWALD:  gamma=   0.401
 Maximum number of real-space cells 3x 3x 3
 Maximum number of reciprocal cells 3x 3x 3

    FEWALD:  cpu time      0.0005: real time      0.0005


--------------------------------------- Iteration      1(   1)  ---------------------------------------


    POTLOK:  cpu time      0.1640: real time      0.2075
    SETDIJ:  cpu time      1.4440: real time      1.4451
     EDDAV:  cpu time      4.7883: real time      4.7980
 BZINTS: Fermi energy:   24.858741;   93.000000 electrons
         Band energy: 0.360029E+02;  BLOECHL correction:   -0.174019
       DOS:  cpu time      0.2498: real time      0.2501
    --------------------------------------------
      LOOP:  cpu time      6.6461: real time      6.7006

 eigenvalue-minimisations  : 12240
 total energy-change (2. order) : 0.1129493E+04  (-0.5164361E+04)
 number of electron      93.0000000 magnetization      27.6000000
 augmentation part       93.0000000 magnetization      27.6000000

 Free energy of the ion-electron system (eV)
  ---------------------------------------------------
  alpha Z        PSCENC =       907.05804358
  Ewald energy   TEWEN  =    -12239.14308040
  -Hartree energ DENC   =     -5290.89027965
  -exchange      EXHF   =         0.00000000
  -V(xc)+E(xc)   XCENC  =       476.56105991
  PAW double counting   =     15026.50715507   -15764.54979187
  entropy T*S    EENTRO =         0.00000000
  eigenvalues    EBANDS =        36.00288131
  atomic energy  EATOM  =     17977.94666926
  Solvation  Ediel_sol  =         0.00000000
  ---------------------------------------------------
  free energy    TOTEN  =      1129.49265720 eV

  energy without entropy =     1129.49265720  energy(sigma->0) =     1129.49265720


--------------------------------------------------------------------------------------------------------




--------------------------------------- Iteration      1(   2)  ---------------------------------------


     EDDAV:  cpu time      3.7832: real time      3.7872
 BZINTS: Fermi energy:   10.950795;   93.000000 electrons
         Band energy:-0.101534E+04;  BLOECHL correction:   -0.055489
       DOS:  cpu time      0.2311: real time      0.2312
    --------------------------------------------
      LOOP:  cpu time      4.0143: real time      4.0184

 eigenvalue-minimisations  :  9344
 total energy-change (2. order) :-0.1051345E+04  (-0.9724210E+03)
 number of electron      93.0000000 magnetization      27.6000000
 augmentation part       93.0000000 magnetization      27.6000000

 Free energy of the ion-electron system (eV)
  ---------------------------------------------------
  alpha Z        PSCENC =       907.05804358
  Ewald energy   TEWEN  =    -12239.14308040
  -Hartree energ DENC   =     -5290.89027965
  -exchange      EXHF   =         0.00000000
  -V(xc)+E(xc)   XCENC  =       476.56105991
  PAW double counting   =     15026.50715507   -15764.54979187
  entropy T*S    EENTRO =         0.00000000
  eigenvalues    EBANDS =     -1015.34209278
  atomic energy  EATOM  =     17977.94666926
  Solvation  Ediel_sol  =         0.00000000
  ---------------------------------------------------
  free energy    TOTEN  =        78.14768310 eV

  energy without entropy =       78.14768310  energy(sigma->0) =       78.14768310


--------------------------------------------------------------------------------------------------------




--------------------------------------- Iteration      1(   3)  ---------------------------------------


     EDDAV:  cpu time      3.5204: real time      3.5233
 BZINTS: Fermi energy:    8.823469;   93.000000 electrons
         Band energy:-0.114041E+04;  BLOECHL correction:   -0.004764
       DOS:  cpu time      0.2083: real time      0.2083
    --------------------------------------------
      LOOP:  cpu time      3.7287: real time      3.7317

 eigenvalue-minimisations  :  8400
 total energy-change (2. order) :-0.1250647E+03  (-0.1146981E+03)
 number of electron      93.0000000 magnetization      27.6000000
 augmentation part       93.0000000 magnetization      27.6000000

 Free energy of the ion-electron system (eV)
  ---------------------------------------------------
  alpha Z        PSCENC =       907.05804358
  Ewald energy   TEWEN  =    -12239.14308040
  -Hartree energ DENC   =     -5290.89027965
  -exchange      EXHF   =         0.00000000
  -V(xc)+E(xc)   XCENC  =       476.56105991
  PAW double counting   =     15026.50715507   -15764.54979187
  entropy T*S    EENTRO =         0.00000000
  eigenvalues    EBANDS =     -1140.40681257
  atomic energy  EATOM  =     17977.94666926
  Solvation  Ediel_sol  =         0.00000000
  ---------------------------------------------------
  free energy    TOTEN  =       -46.91703669 eV

  energy without entropy =      -46.91703669  energy(sigma->0) =      -46.91703669


--------------------------------------------------------------------------------------------------------




--------------------------------------- Iteration      1(   4)  ---------------------------------------


     EDDAV:  cpu time      4.0485: real time      4.0517
 BZINTS: Fermi energy:    8.702175;   93.000000 electrons
         Band energy:-0.114914E+04;  BLOECHL correction:   -0.004451
       DOS:  cpu time      0.2044: real time      0.2045
    --------------------------------------------
      LOOP:  cpu time      4.2529: real time      4.2563

 eigenvalue-minimisations  : 10048
 total energy-change (2. order) :-0.8731362E+01  (-0.8547900E+01)
 number of electron      93.0000000 magnetization      27.6000000
 augmentation part       93.0000000 magnetization      27.6000000

 Free energy of the ion-electron system (eV)
  ---------------------------------------------------
  alpha Z        PSCENC =       907.05804358
  Ewald energy   TEWEN  =    -12239.14308040
  -Hartree energ DENC   =     -5290.89027965
  -exchange      EXHF   =         0.00000000
  -V(xc)+E(xc)   XCENC  =       476.56105991
  PAW double counting   =     15026.50715507   -15764.54979187
  entropy T*S    EENTRO =         0.00000000
  eigenvalues    EBANDS =     -1149.13817476
  atomic energy  EATOM  =     17977.94666926
  Solvation  Ediel_sol  =         0.00000000
  ---------------------------------------------------
  free energy    TOTEN  =       -55.64839888 eV

  energy without entropy =      -55.64839888  energy(sigma->0) =      -55.64839888


--------------------------------------------------------------------------------------------------------




--------------------------------------- Iteration      1(   5)  ---------------------------------------


     EDDAV:  cpu time      4.4942: real time      4.4980
 BZINTS: Fermi energy:    8.697522;   93.000000 electrons
         Band energy:-0.114953E+04;  BLOECHL correction:   -0.004409
       DOS:  cpu time      0.1964: real time      0.1965
    CHARGE:  cpu time      0.1234: real time      0.1235
    MIXING:  cpu time      0.0011: real time      0.0011
    --------------------------------------------
      LOOP:  cpu time      4.8151: real time      4.8191

 eigenvalue-minimisations  : 11640
 total energy-change (2. order) :-0.3875013E+00  (-0.3859081E+00)
 number of electron      92.9999968 magnetization      11.1075208
 augmentation part       46.8653692 magnetization       7.3478794

 Broyden mixing:
  rms(total) = 0.79066E+01    rms(broyden)= 0.79064E+01
  rms(prec ) = 0.19519E+02
  weight for this iteration     100.00

 Free energy of the ion-electron system (eV)
  ---------------------------------------------------
  alpha Z        PSCENC =       907.05804358
  Ewald energy   TEWEN  =    -12239.14308040
  -Hartree energ DENC   =     -5290.89027965
  -exchange      EXHF   =         0.00000000
  -V(xc)+E(xc)   XCENC  =       476.56105991
  PAW double counting   =     15026.50715507   -15764.54979187
  entropy T*S    EENTRO =         0.00000000
  eigenvalues    EBANDS =     -1149.52567604
  atomic energy  EATOM  =     17977.94666926
  Solvation  Ediel_sol  =         0.00000000
  ---------------------------------------------------
  free energy    TOTEN  =       -56.03590016 eV

  energy without entropy =      -56.03590016  energy(sigma->0) =      -56.03590016


--------------------------------------------------------------------------------------------------------




--------------------------------------- Iteration      1(   6)  ---------------------------------------


    POTLOK:  cpu time      0.0068: real time      0.0080
    SETDIJ:  cpu time      1.4062: real time      1.4072
     EDDAV:  cpu time      4.8238: real time      4.8277
 BZINTS: Fermi energy:    9.673895;   93.000000 electrons
         Band energy:-0.191422E+04;  BLOECHL correction:   -0.085968
       DOS:  cpu time      0.2238: real time      0.2241
    CHARGE:  cpu time      0.1219: real time      0.1220
    MIXING:  cpu time      0.0016: real time      0.0038
    --------------------------------------------
      LOOP:  cpu time      6.5840: real time      6.5927

 eigenvalue-minimisations  : 12480
 total energy-change (2. order) :-0.5247852E+03  (-0.4171477E+03)
 number of electron      92.9999954 magnetization       7.2968987
 augmentation part       50.8438447 magnetization       6.5947606

 Broyden mixing:
  rms(total) = 0.22581E+02    rms(broyden)= 0.22581E+02
  rms(prec ) = 0.36355E+02
  weight for this iteration     100.00

 eigenvalues of (default mixing * dielectric matrix)
  average eigenvalue GAMMA=   0.1635
  0.1635

 Free energy of the ion-electron system (eV)
  ---------------------------------------------------
  alpha Z        PSCENC =       907.05804358
  Ewald energy   TEWEN  =    -12239.14308040
  -Hartree energ DENC   =     -4903.02245154
  -exchange      EXHF   =         0.00000000
  -V(xc)+E(xc)   XCENC  =       456.34903995
  PAW double counting   =     15041.31678189   -15907.10410633
  entropy T*S    EENTRO =         0.00000000
  eigenvalues    EBANDS =     -1914.22194742
  atomic energy  EATOM  =     17977.94666926
  Solvation  Ediel_sol  =         0.00000000
  ---------------------------------------------------
  free energy    TOTEN  =      -580.82105102 eV

  energy without entropy =     -580.82105102  energy(sigma->0) =     -580.82105102


--------------------------------------------------------------------------------------------------------




--------------------------------------- Iteration      1(   7)  ---------------------------------------


    POTLOK:  cpu time      0.0068: real time      0.0075
    SETDIJ:  cpu time      1.4129: real time      1.4139
     EDDAV:  cpu time      4.8225: real time      4.8268
 BZINTS: Fermi energy:    9.634777;   93.000000 electrons
         Band energy:-0.148798E+04;  BLOECHL correction:   -0.024577
       DOS:  cpu time      0.2066: real time      0.2067
    CHARGE:  cpu time      0.1201: real time      0.1201
    MIXING:  cpu time      0.0013: real time      0.0013
    --------------------------------------------
      LOOP:  cpu time      6.5701: real time      6.5763

 eigenvalue-minimisations  : 12648
 total energy-change (2. order) : 0.3431559E+03  (-0.3028867E+02)
 number of electron      92.9999956 magnetization       5.8032160
 augmentation part       47.8828399 magnetization       5.1010951

 Broyden mixing:
  rms(total) = 0.84279E+01    rms(broyden)= 0.84279E+01
  rms(prec ) = 0.22284E+02
  weight for this iteration     100.00

 eigenvalues of (default mixing * dielectric matrix)
  average eigenvalue GAMMA=   0.4884
  0.4884  0.4884

 Free energy of the ion-electron system (eV)
  ---------------------------------------------------
  alpha Z        PSCENC =       907.05804358
  Ewald energy   TEWEN  =    -12239.14308040
  -Hartree energ DENC   =     -5017.26119450
  -exchange      EXHF   =         0.00000000
  -V(xc)+E(xc)   XCENC  =       456.79669603
  PAW double counting   =     16157.17627095   -16992.25730764
  entropy T*S    EENTRO =         0.00000000
  eigenvalues    EBANDS =     -1487.98123850
  atomic energy  EATOM  =     17977.94666926
  Solvation  Ediel_sol  =         0.00000000
  ---------------------------------------------------
  free energy    TOTEN  =      -237.66514122 eV

  energy without entropy =     -237.66514122  energy(sigma->0) =     -237.66514122


--------------------------------------------------------------------------------------------------------




--------------------------------------- Iteration      1(   8)  ---------------------------------------


    POTLOK:  cpu time      0.0071: real time      0.0076
    SETDIJ:  cpu time      1.4158: real time      1.4166
     EDDAV:  cpu time      4.6691: real time      4.6714
 BZINTS: Fermi energy:    9.734800;   93.000000 electrons
         Band energy:-0.133655E+04;  BLOECHL correction:   -0.019329
       DOS:  cpu time      0.2067: real time      0.2075
    CHARGE:  cpu time      0.1203: real time      0.1208
    MIXING:  cpu time      0.0012: real time      0.0012
    --------------------------------------------
      LOOP:  cpu time      6.4202: real time      6.4252

 eigenvalue-minimisations  : 12152
 total energy-change (2. order) : 0.1757105E+03  (-0.5710036E+01)
 number of electron      92.9999956 magnetization       4.7070234
 augmentation part       46.4850161 magnetization       4.0624666

 Broyden mixing:
  rms(total) = 0.64213E+01    rms(broyden)= 0.64213E+01
  rms(prec ) = 0.17575E+02
  weight for this iteration     100.00

 eigenvalues of (default mixing * dielectric matrix)
  average eigenvalue GAMMA=   0.7451
  0.8371  0.8371  0.5612

 Free energy of the ion-electron system (eV)
  ---------------------------------------------------
  alpha Z        PSCENC =       907.05804358
  Ewald energy   TEWEN  =    -12239.14308040
  -Hartree energ DENC   =     -5047.74619600
  -exchange      EXHF   =         0.00000000
  -V(xc)+E(xc)   XCENC  =       456.30700598
  PAW double counting   =     15775.37024685   -16555.20147419
  entropy T*S    EENTRO =         0.00000000
  eigenvalues    EBANDS =     -1336.54588941
  atomic energy  EATOM  =     17977.94666926
  Solvation  Ediel_sol  =         0.00000000
  ---------------------------------------------------
  free energy    TOTEN  =       -61.95467434 eV

  energy without entropy =      -61.95467434  energy(sigma->0) =      -61.95467434


--------------------------------------------------------------------------------------------------------




--------------------------------------- Iteration      1(   9)  ---------------------------------------


    POTLOK:  cpu time      0.0067: real time      0.0080
    SETDIJ:  cpu time      1.4066: real time      1.4077
     EDDAV:  cpu time      4.9922: real time      4.9959
 BZINTS: Fermi energy:    5.834148;   93.000000 electrons
         Band energy:-0.150263E+04;  BLOECHL correction:   -0.019486
       DOS:  cpu time      0.2169: real time      0.2169
    CHARGE:  cpu time      0.1190: real time      0.1191
    MIXING:  cpu time      0.0014: real time      0.0014
    --------------------------------------------
      LOOP:  cpu time      6.7427: real time      6.7490

 eigenvalue-minimisations  : 12880
 total energy-change (2. order) :-0.7966676E+02  (-0.1375520E+02)
 number of electron      92.9999964 magnetization       3.6838800
 augmentation part       50.7333313 magnetization       1.7335746

 Broyden mixing:
  rms(total) = 0.69288E+01    rms(broyden)= 0.69286E+01
  rms(prec ) = 0.18911E+02
  weight for this iteration     100.00

 eigenvalues of (default mixing * dielectric matrix)
  average eigenvalue GAMMA=   0.5929
  0.8953  0.5501  0.5501  0.3759

 Free energy of the ion-electron system (eV)
  ---------------------------------------------------
  alpha Z        PSCENC =       907.05804358
  Ewald energy   TEWEN  =    -12239.14308040
  -Hartree energ DENC   =     -5032.32219363
  -exchange      EXHF   =         0.00000000
  -V(xc)+E(xc)   XCENC  =       453.99811457
  PAW double counting   =     15235.25676084   -15941.78796666
  entropy T*S    EENTRO =         0.00000000
  eigenvalues    EBANDS =     -1502.62778247
  atomic energy  EATOM  =     17977.94666926
  Solvation  Ediel_sol  =         0.00000000
  ---------------------------------------------------
  free energy    TOTEN  =      -141.62143491 eV

  energy without entropy =     -141.62143491  energy(sigma->0) =     -141.62143491


--------------------------------------------------------------------------------------------------------




--------------------------------------- Iteration      1(  10)  ---------------------------------------


    POTLOK:  cpu time      0.0074: real time      0.0083
    SETDIJ:  cpu time      1.4003: real time      1.4013
     EDDAV:  cpu time      3.8270: real time      3.8292
 BZINTS: Fermi energy:    6.116095;   93.000000 electrons
         Band energy:-0.136967E+04;  BLOECHL correction:   -0.018484
       DOS:  cpu time      0.2274: real time      0.2274
    CHARGE:  cpu time      0.1201: real time      0.1201
    MIXING:  cpu time      0.0014: real time      0.0014
    --------------------------------------------
      LOOP:  cpu time      5.5835: real time      5.5878

 eigenvalue-minimisations  :  9512
 total energy-change (2. order) : 0.5015486E+02  (-0.4500380E+01)
 number of electron      92.9999966 magnetization       3.0275906
 augmentation part       50.0449617 magnetization       1.4612801

 Broyden mixing:
  rms(total) = 0.63295E+01    rms(broyden)= 0.63294E+01
  rms(prec ) = 0.17868E+02
  weight for this iteration     100.00

 eigenvalues of (default mixing * dielectric matrix)
  average eigenvalue GAMMA=   0.6152
  1.1183  0.5061  0.5061  0.4729  0.4729

 Free energy of the ion-electron system (eV)
  ---------------------------------------------------
  alpha Z        PSCENC =       907.05804358
  Ewald energy   TEWEN  =    -12239.14308040
  -Hartree energ DENC   =     -5077.94934232
  -exchange      EXHF   =         0.00000000
  -V(xc)+E(xc)   XCENC  =       455.73742205
  PAW double counting   =     15632.91937006   -16378.36119188
  entropy T*S    EENTRO =         0.00000000
  eigenvalues    EBANDS =     -1369.67446058
  atomic energy  EATOM  =     17977.94666926
  Solvation  Ediel_sol  =         0.00000000
  ---------------------------------------------------
  free energy    TOTEN  =       -91.46657023 eV

  energy without entropy =      -91.46657023  energy(sigma->0) =      -91.46657023


--------------------------------------------------------------------------------------------------------




--------------------------------------- Iteration      1(  11)  ---------------------------------------


    POTLOK:  cpu time      0.0071: real time      0.0075
    SETDIJ:  cpu time      1.4046: real time      1.4053
     EDDAV:  cpu time      4.7862: real time      4.7896
 BZINTS: Fermi energy:    5.544235;   93.000000 electrons
         Band energy:-0.129322E+04;  BLOECHL correction:   -0.017452
       DOS:  cpu time      0.2145: real time      0.2147
    CHARGE:  cpu time      0.1205: real time      0.1205
    MIXING:  cpu time      0.0014: real time      0.0014
    --------------------------------------------
      LOOP:  cpu time      6.5342: real time      6.5390

 eigenvalue-minimisations  : 12384
 total energy-change (2. order) : 0.5230605E+02  (-0.1499809E+01)
 number of electron      92.9999964 magnetization       3.0416758
 augmentation part       51.0054686 magnetization       1.6654480

 Broyden mixing:
  rms(total) = 0.50483E+01    rms(broyden)= 0.50483E+01
  rms(prec ) = 0.14310E+02
  weight for this iteration     100.00

 eigenvalues of (default mixing * dielectric matrix)
  average eigenvalue GAMMA=   0.5318
  1.0660  0.5029  0.5029  0.4642  0.4642  0.1907

 Free energy of the ion-electron system (eV)
  ---------------------------------------------------
  alpha Z        PSCENC =       907.05804358
  Ewald energy   TEWEN  =    -12239.14308040
  -Hartree energ DENC   =     -5075.53514675
  -exchange      EXHF   =         0.00000000
  -V(xc)+E(xc)   XCENC  =       456.13809498
  PAW double counting   =     15852.98174973   -16625.38924639
  entropy T*S    EENTRO =         0.00000000
  eigenvalues    EBANDS =     -1293.21760171
  atomic energy  EATOM  =     17977.94666926
  Solvation  Ediel_sol  =         0.00000000
  ---------------------------------------------------
  free energy    TOTEN  =       -39.16051770 eV

  energy without entropy =      -39.16051770  energy(sigma->0) =      -39.16051770


--------------------------------------------------------------------------------------------------------




--------------------------------------- Iteration      1(  12)  ---------------------------------------


    POTLOK:  cpu time      0.0071: real time      0.0078
    SETDIJ:  cpu time      1.3930: real time      1.3936
     EDDAV:  cpu time      4.3642: real time      4.3674
 BZINTS: Fermi energy:    5.603383;   93.000000 electrons
         Band energy:-0.128594E+04;  BLOECHL correction:   -0.016774
       DOS:  cpu time      0.2243: real time      0.2246
    CHARGE:  cpu time      0.1211: real time      0.1212
    MIXING:  cpu time      0.0015: real time      0.0015
    --------------------------------------------
      LOOP:  cpu time      6.1111: real time      6.1160

 eigenvalue-minimisations  : 11240
 total energy-change (2. order) : 0.1602909E+01  (-0.1356963E+00)
 number of electron      92.9999964 magnetization       3.3742690
 augmentation part       50.8864735 magnetization       2.0360816

 Broyden mixing:
  rms(total) = 0.48236E+01    rms(broyden)= 0.48236E+01
  rms(prec ) = 0.13683E+02
  weight for this iteration     100.00

 eigenvalues of (default mixing * dielectric matrix)
  average eigenvalue GAMMA=   0.4940
  1.1111  0.5090  0.5090  0.4760  0.4760  0.2238  0.1531

 Free energy of the ion-electron system (eV)
  ---------------------------------------------------
  alpha Z        PSCENC =       907.05804358
  Ewald energy   TEWEN  =    -12239.14308040
  -Hartree energ DENC   =     -5080.22257448
  -exchange      EXHF   =         0.00000000
  -V(xc)+E(xc)   XCENC  =       456.30783067
  PAW double counting   =     15856.51603279   -16630.07920994
  entropy T*S    EENTRO =         0.00000000
  eigenvalues    EBANDS =     -1285.94132002
  atomic energy  EATOM  =     17977.94666926
  Solvation  Ediel_sol  =         0.00000000
  ---------------------------------------------------
  free energy    TOTEN  =       -37.55760854 eV

  energy without entropy =      -37.55760854  energy(sigma->0) =      -37.55760854


--------------------------------------------------------------------------------------------------------




--------------------------------------- Iteration      1(  13)  ---------------------------------------


    POTLOK:  cpu time      0.0070: real time      0.0075
    SETDIJ:  cpu time      1.4215: real time      1.4228
     EDDAV:  cpu time      4.4092: real time      4.4137
 BZINTS: Fermi energy:    6.789113;   93.000000 electrons
         Band energy:-0.127530E+04;  BLOECHL correction:   -0.002780
       DOS:  cpu time      0.2144: real time      0.2147
    CHARGE:  cpu time      0.1209: real time      0.1210
    MIXING:  cpu time      0.0015: real time      0.0015
    --------------------------------------------
      LOOP:  cpu time      6.1746: real time      6.1812

 eigenvalue-minimisations  : 11104
 total energy-change (2. order) : 0.2034310E+01  (-0.1562329E+01)
 number of electron      92.9999960 magnetization       3.0750344
 augmentation part       48.2456641 magnetization       2.8524169

 Broyden mixing:
  rms(total) = 0.34991E+01    rms(broyden)= 0.34988E+01
  rms(prec ) = 0.63787E+01
  weight for this iteration     100.00

 eigenvalues of (default mixing * dielectric matrix)
  average eigenvalue GAMMA=   0.4949
  1.0548  0.5285  0.5285  0.5085  0.5085  0.3672  0.3672  0.0956

 Free energy of the ion-electron system (eV)
  ---------------------------------------------------
  alpha Z        PSCENC =       907.05804358
  Ewald energy   TEWEN  =    -12239.14308040
  -Hartree energ DENC   =     -5082.35740612
  -exchange      EXHF   =         0.00000000
  -V(xc)+E(xc)   XCENC  =       456.54148134
  PAW double counting   =     15885.16522257   -16665.43797978
  entropy T*S    EENTRO =         0.00000000
  eigenvalues    EBANDS =     -1275.29624939
  atomic energy  EATOM  =     17977.94666926
  Solvation  Ediel_sol  =         0.00000000
  ---------------------------------------------------
  free energy    TOTEN  =       -35.52329895 eV

  energy without entropy =      -35.52329895  energy(sigma->0) =      -35.52329895


--------------------------------------------------------------------------------------------------------




--------------------------------------- Iteration      1(  14)  ---------------------------------------


    POTLOK:  cpu time      0.0073: real time      0.0077
    SETDIJ:  cpu time      1.4129: real time      1.4137
     EDDAV:  cpu time      4.8465: real time      4.8497
 BZINTS: Fermi energy:    7.366140;   93.000000 electrons
         Band energy:-0.127941E+04;  BLOECHL correction:   -0.002937
       DOS:  cpu time      0.2301: real time      0.2302
    CHARGE:  cpu time      0.1204: real time      0.1205
    MIXING:  cpu time      0.0015: real time      0.0015
    --------------------------------------------
      LOOP:  cpu time      6.6186: real time      6.6232

 eigenvalue-minimisations  : 12736
 total energy-change (2. order) :-0.2662942E+01  (-0.9274315E-01)
 number of electron      92.9999958 magnetization       2.2533782
 augmentation part       47.4504434 magnetization       2.3528152

 Broyden mixing:
  rms(total) = 0.32063E+01    rms(broyden)= 0.32063E+01
  rms(prec ) = 0.88233E+01
  weight for this iteration     100.00

 eigenvalues of (default mixing * dielectric matrix)
  average eigenvalue GAMMA=   0.4885
  1.2052  0.4909  0.4909  0.5793  0.5793  0.4303  0.3409  0.1902  0.0892

 Free energy of the ion-electron system (eV)
  ---------------------------------------------------
  alpha Z        PSCENC =       907.05804358
  Ewald energy   TEWEN  =    -12239.14308040
  -Hartree energ DENC   =     -5077.44738369
  -exchange      EXHF   =         0.00000000
  -V(xc)+E(xc)   XCENC  =       456.43820015
  PAW double counting   =     15908.93236408   -16692.56382091
  entropy T*S    EENTRO =         0.00000000
  eigenvalues    EBANDS =     -1279.40723343
  atomic energy  EATOM  =     17977.94666926
  Solvation  Ediel_sol  =         0.00000000
  ---------------------------------------------------
  free energy    TOTEN  =       -38.18624136 eV

  energy without entropy =      -38.18624136  energy(sigma->0) =      -38.18624136


--------------------------------------------------------------------------------------------------------




--------------------------------------- Iteration      1(  15)  ---------------------------------------


    POTLOK:  cpu time      0.0071: real time      0.0079
    SETDIJ:  cpu time      1.3999: real time      1.4005
     EDDAV:  cpu time      4.5190: real time      4.5213
 BZINTS: Fermi energy:    5.830676;   93.000000 electrons
         Band energy:-0.127546E+04;  BLOECHL correction:   -0.011974
       DOS:  cpu time      0.2118: real time      0.2118
    CHARGE:  cpu time      0.1209: real time      0.1209
    MIXING:  cpu time      0.0016: real time      0.0016
    --------------------------------------------
      LOOP:  cpu time      6.2603: real time      6.2641

 eigenvalue-minimisations  : 11544
 total energy-change (2. order) :-0.9793308E+00  (-0.3660905E+01)
 number of electron      92.9999965 magnetization       2.0931111
 augmentation part       50.4057603 magnetization       0.9682662

 Broyden mixing:
  rms(total) = 0.43884E+01    rms(broyden)= 0.43883E+01
  rms(prec ) = 0.12322E+02
  weight for this iteration     100.00

 eigenvalues of (default mixing * dielectric matrix)
  average eigenvalue GAMMA=   0.5468
  1.2547  0.8289  0.8289  0.5235  0.5235  0.4681  0.4681  0.2442  0.2442  0.0835

 Free energy of the ion-electron system (eV)
  ---------------------------------------------------
  alpha Z        PSCENC =       907.05804358
  Ewald energy   TEWEN  =    -12239.14308040
  -Hartree energ DENC   =     -5093.49492616
  -exchange      EXHF   =         0.00000000
  -V(xc)+E(xc)   XCENC  =       456.68841986
  PAW double counting   =     15806.70265805   -16579.46519306
  entropy T*S    EENTRO =         0.00000000
  eigenvalues    EBANDS =     -1275.45816328
  atomic energy  EATOM  =     17977.94666926
  Solvation  Ediel_sol  =         0.00000000
  ---------------------------------------------------
  free energy    TOTEN  =       -39.16557215 eV

  energy without entropy =      -39.16557215  energy(sigma->0) =      -39.16557215


--------------------------------------------------------------------------------------------------------




--------------------------------------- Iteration      1(  16)  ---------------------------------------


    POTLOK:  cpu time      0.0071: real time      0.0078
    SETDIJ:  cpu time      1.4086: real time      1.4093
     EDDAV:  cpu time      4.2504: real time      4.2525
 BZINTS: Fermi energy:    7.022394;   93.000000 electrons
         Band energy:-0.125236E+04;  BLOECHL correction:   -0.004027
       DOS:  cpu time      0.2093: real time      0.2093
    CHARGE:  cpu time      0.1195: real time      0.1195
    MIXING:  cpu time      0.0016: real time      0.0016
    --------------------------------------------
      LOOP:  cpu time      5.9964: real time      6.0000

 eigenvalue-minimisations  : 10792
 total energy-change (2. order) : 0.3463300E+01  (-0.1262583E+01)
 number of electron      92.9999959 magnetization       1.6135129
 augmentation part       47.7815684 magnetization       1.7998540

 Broyden mixing:
  rms(total) = 0.21456E+01    rms(broyden)= 0.21453E+01
  rms(prec ) = 0.55604E+01
  weight for this iteration     100.00

 eigenvalues of (default mixing * dielectric matrix)
  average eigenvalue GAMMA=   0.5775
  1.6664  0.9138  0.9138  0.5136  0.5136  0.4365  0.4365  0.3351  0.3351  0.2048
  0.0833

 Free energy of the ion-electron system (eV)
  ---------------------------------------------------
  alpha Z        PSCENC =       907.05804358
  Ewald energy   TEWEN  =    -12239.14308040
  -Hartree energ DENC   =     -5106.44616186
  -exchange      EXHF   =         0.00000000
  -V(xc)+E(xc)   XCENC  =       457.28700441
  PAW double counting   =     15822.23305245   -16602.27770857
  entropy T*S    EENTRO =         0.00000000
  eigenvalues    EBANDS =     -1252.36009075
  atomic energy  EATOM  =     17977.94666926
  Solvation  Ediel_sol  =         0.00000000
  ---------------------------------------------------
  free energy    TOTEN  =       -35.70227189 eV

  energy without entropy =      -35.70227189  energy(sigma->0) =      -35.70227189


--------------------------------------------------------------------------------------------------------




--------------------------------------- Iteration      1(  17)  ---------------------------------------


    POTLOK:  cpu time      0.0070: real time      0.0075
    SETDIJ:  cpu time      1.4051: real time      1.4056
     EDDAV:  cpu time      4.3227: real time      4.3247
 BZINTS: Fermi energy:    7.884620;   93.000000 electrons
         Band energy:-0.124023E+04;  BLOECHL correction:   -0.007419
       DOS:  cpu time      0.2192: real time      0.2193
    CHARGE:  cpu time      0.1173: real time      0.1173
    MIXING:  cpu time      0.0016: real time      0.0016
    --------------------------------------------
      LOOP:  cpu time      6.0730: real time      6.0760

 eigenvalue-minimisations  : 11016
 total energy-change (2. order) :-0.5005069E+01  (-0.1921637E+00)
 number of electron      92.9999958 magnetization       1.9503683
 augmentation part       46.3336931 magnetization       2.1236782

 Broyden mixing:
  rms(total) = 0.36167E+01    rms(broyden)= 0.36167E+01
  rms(prec ) = 0.10167E+02
  weight for this iteration     100.00

 eigenvalues of (default mixing * dielectric matrix)
  average eigenvalue GAMMA=   0.5474
  1.2429  1.2429  0.5120  0.5120  0.7289  0.4832  0.4832  0.4330  0.3196  0.2917
  0.2366  0.0833

 Free energy of the ion-electron system (eV)
  ---------------------------------------------------
  alpha Z        PSCENC =       907.05804358
  Ewald energy   TEWEN  =    -12239.14308040
  -Hartree energ DENC   =     -5119.99588724
  -exchange      EXHF   =         0.00000000
  -V(xc)+E(xc)   XCENC  =       457.78874462
  PAW double counting   =     15829.12566773   -16613.25714359
  entropy T*S    EENTRO =         0.00000000
  eigenvalues    EBANDS =     -1240.23035445
  atomic energy  EATOM  =     17977.94666926
  Solvation  Ediel_sol  =         0.00000000
  ---------------------------------------------------
  free energy    TOTEN  =       -40.70734049 eV

  energy without entropy =      -40.70734049  energy(sigma->0) =      -40.70734049


--------------------------------------------------------------------------------------------------------




--------------------------------------- Iteration      1(  18)  ---------------------------------------


    POTLOK:  cpu time      0.0070: real time      0.0076
    SETDIJ:  cpu time      1.4077: real time      1.4081
     EDDAV:  cpu time      4.8405: real time      4.8428
 BZINTS: Fermi energy:    9.024922;   93.000000 electrons
[...]
  209        strkin                                0.000363                            1   3
  210          m_sumb_d                              0.000012                          1   4
  211        strelo                                0.001113                            1   3
  212          m_sumb_d                              0.000042                          2   4
  213        strnlr                                1.847485                            1   3
  214          rspher_all                            0.092021                          9   4
  215          phaser                                0.504708                        252   4
  216          rpro_isp                              1.243432                        252   4
  217            fftwav_mpi                            0.283468                     9072   5
  218              fftwav                                0.272100                   9072   6
  219                fft3d                                 0.061876                 9072   7
  220            rpromu_acc                            0.453403                     2520   5
  221          m_sumb_d                              0.000013                          1   4
  222        fft3d_mpi                             0.003102                           22   3
  223          fftbrc_mpi                            0.002413                         22   4
  224            fftbas_plan_mpi                       0.002397                       22   5
  225              map_forward                           0.000853                     20   6
  226                map_gather                            0.000205                   10   7
  227                m_alltoallv_z                         0.000120                   10   7
  228                map_scatter                           0.000392                   10   7
  229              map_backward                          0.000941                     24   6
  230                map_gather                            0.000234                   12   7
  231                m_alltoallv_z                         0.000127                   12   7
  232                map_scatter                           0.000409                   12   7
  233        m_sumb_d                              0.000026                            5   3
  234        forhar                                0.001303                            2   3
  235          m_sumb_d                              0.000022                          2   4
  236        strehar                               0.000797                            1   3
  237          m_sumb_d                              0.000006                          1   4
  238        chggra                                0.000761                            1   3
  239          fft3d_mpi                             0.000449                          3   4
  240            fftbrc_mpi                            0.000350                        3   5
  241              fftbas_plan_mpi                       0.000350                      3   6
  242                map_forward                           0.000179                    4   7
  243                  map_gather                            0.000041                  2   8
  244                  m_alltoallv_z                         0.000026                  2   8
  245                  map_scatter                           0.000084                  2   8
  246                map_backward                          0.000079                    2   7
  247                  map_gather                            0.000020                  1   8
  248                  m_alltoallv_z                         0.000012                  1   8
  249                  map_scatter                           0.000033                  1   8
  250          m_sumb_d                              0.000011                          2   4
  251          pothar                                0.000080                          1   4
  252            m_sumb_d                              0.000010                        1   5
  253        brmix                                 0.004496                            1   3
  254          m_sumb_d                              0.000022                          6   4
  255          brpre                                 0.000015                          2   4
  256          setg0                                 0.000463                          1   4
  257          broyd                                 0.003461                          1   4
  258            m_sumb_d                              0.000321                       51   5
  259            brget                                 0.000618                      229   5
  260            brsav                                 0.000132                       49   5
  261        m_bcast_d                             0.000018                            2   3
  262      potlok                                0.018399                              2   2
  263        fft3d_mpi                             0.012084                           36   3
  264          fftbrc_mpi                            0.010344                         36   4
  265            fftbas_plan_mpi                       0.010329                       36   5
  266              map_forward                           0.003169                     40   6
  267                map_gather                            0.001071                   24   7
  268                m_alltoallv_z                         0.000971                   24   7
  269                map_scatter                           0.000943                   24   7
  270              map_backward                          0.002517                     32   6
  271                map_gather                            0.000896                   16   7
  272                m_alltoallv_z                         0.000674                   16   7
  273                map_scatter                           0.000772                   16   7
  274              dfftw_execute                         0.003051                     30   6
  275        m_sumb_d                              0.000023                            5   3
  276        pothar                                0.000693                            2   3
  277          m_sumb_d                              0.000052                          2   4
  278        m_bcast_d                             0.001145                            4   3
  279      potlok_metagga                        0.000001                              1   2
  280      set_dd_magatom                        0.000004                              1   2
  281      set_dd_paw                            1.410475                              1   2
  282        m_sumb_d                              0.940770                            7   3
  283      augmentation_charge                   0.008424                              1   2
  284        fft3d_mpi                             0.001891                            2   3
  285          fftbrc_mpi                            0.001640                          2   4
  286            fftbas_plan_mpi                       0.001640                        2   5
  287              dfftw_execute                         0.000690                      6   6
  288              map_backward                          0.000774                      4   6
  289                map_gather                            0.000322                    2   7
  290                m_alltoallv_z                         0.000257                    2   7
  291                map_scatter                           0.000191                    2   7
  292      densta                                6.464969                              1   2
 
 Flat profile
 ============
 
             routine name                   CPU           calls
 ---------------------------------------------------------------
 m_sumb_d                              245.908318     1042701
 eddav                                 158.688271         184
 lapack                                150.664487      339272
 raccmu_                               125.920007      339272
 set_dd_paw                             85.640544         182
 redis_pw                               59.959913     1870880
 densta                                 45.397219         185
 m_alltoall_d                           34.438532     4940320
 phaser                                 20.915577       10668
 eccp                                   16.186643      185472
 redis_proj                             15.562789     2364008
 fft3d                                  14.851142     1985248
 fftwav                                 12.168012     1306704
 init_acc                               11.764147           1
 orth1                                  10.895149     1017984
 w1_copy                                 9.914673     2035632
 racc0mu_acc                             9.890951      339272
 overl                                   9.669225     1171672
 soft_charge                             8.655722         180
 hamiltmu                                7.778493      339272
 rpromu_acc                              7.693070      250176
 m_bcast_z                               6.783606      343304
 setup_precond                           6.679152      185472
 total_time                              5.845617           1
 m_bcast_d                               5.577257      678913
 overl_mu                                5.177108      339272
 ggemm                                   4.672120      432008
 pw_charge                               3.199726      121984
 kinhamil                                3.107876      678544
 vhamil                                  3.095669      678544
 depsum                                  2.990917         180
 fftext_mpi                              2.843877      678544
 newband                                 2.747705      349576
 apply_precond                           2.686141      493072
 acc_init_cublas                         2.435635           1
 fftwav_mpi                              1.707927     1306704
 augmentation_charge                     1.181434         181
 setdij_                                 1.107162         208
 set_charge                              0.860460         180
 acc_init_cusolver                       0.794877           1
 rpro_isp                                0.704498         364
 potlok                                  0.463419         182
 fft3d_mpi                               0.443216      684023
 lincom                                  0.379827       10360
 broyd                                   0.368793         180
 m_alltoallv_z                           0.337492        6203
 elmin                                   0.298639           1
 w1_projall                              0.246300      246536
 map_scatter                             0.233080        6203
 fftbas_plan_mpi                         0.207844        5479
 dfftw_execute                           0.181189        2244
 map_gather                              0.180954        6203
 rspher_all                              0.137584          14
 acc_cufft_makeplan                      0.126297          19
 brget                                   0.100254       38073
 brmix                                   0.095958         180
 setg0                                   0.083544         182
 sphpro_fast                             0.077056           2
 truncate_high_frequency_w1              0.071644      864016
 proall                                  0.045877           1
 map_backward                            0.032840        5834
 map_forward                             0.031555        5124
 brsav                                   0.027051       10754
 orthch                                  0.015502           1
 pothar                                  0.013701         183
 choleski                                0.013493          56
 force_and_stress                        0.009112           1
 strnlr                                  0.007311           1
 fft_gq                                  0.005355         180
 inisym                                  0.004998           1
 brpre                                   0.002870         360
 fftbrc_mpi                              0.002699        5479
 fornlr                                  0.002507           1
 stufak                                  0.001833           1
 forhar                                  0.001281           2
 strelo                                  0.001071           1
 strehar                                 0.000791           1
 vectorpot                               0.000752         181
 set_dd_magatom                          0.000715         182
 forloc                                  0.000664           1
 strkin                                  0.000351           1
 fewald                                  0.000331           1
 chggra                                  0.000221           1
 brgrid                                  0.000118           1
 rsp                                     0.000095           1
 posmap                                  0.000036           2
 crpa_reader                             0.000028           1
 fordep                                  0.000027           1
 rcp                                     0.000018           1
 potlok_metagga                          0.000016         181
 acc_cufft_makeplans                     0.000013           3
 rotate_active_occupied_orbital          0.000000           1
 redis_pw_over_bands                     0.000000           1
 ---------------------------------------------------------------
  summed up times     1131.017965078354     
 
 Accumulative profile
 ====================
 
             routine name                   CPU           calls
 ---------------------------------------------------------------
 total_time                           1131.017965           1
 elmin                                1097.090418           1
 eddav                                 780.853183         184
 set_dd_paw                            255.207087         182
 m_sumb_d                              245.908318     1042701
 hamiltmu                              162.850130      339272
 lapack                                150.664487      339272
 raccmu_                               140.988066      339272
 redis_pw                               76.921516     1870880
 densta                                 45.397219         185
 newband                                39.173149      349576
 m_alltoall_d                           34.438532     4940320
 redis_proj                             33.039718     2364008
 fftwav_mpi                             23.890746     1306704
 fftwav                                 22.182819     1306704
 set_charge                             21.609406         180
 phaser                                 20.915577       10668
 eccp                                   16.186643      185472
 soft_charge                            16.077458         180
 fft3d                                  14.851142     1985248
 init_acc                               11.764147           1
 kinhamil                               10.987902      678544
 orth1                                  10.895149     1017984
 w1_copy                                 9.914673     2035632
 racc0mu_acc                             9.890951      339272
 overl                                   9.669225     1171672
 fftext_mpi                              7.880026      678544
 rpromu_acc                              7.693070      250176
 w1_projall                              7.326205      246536
 m_bcast_z                               6.783606      343304
 setup_precond                           6.679152      185472
 fft3d_mpi                               6.487203      684023
 m_bcast_d                               5.577257      678913
 overl_mu                                5.177108      339272
 ggemm                                   4.672120      432008
 force_and_stress                        4.141371           1
 pw_charge                               3.199726      121984
 vhamil                                  3.095669      678544
 depsum                                  3.005434         180
 apply_precond                           2.686141      493072
 acc_init_cublas                         2.435635           1
 strnlr                                  1.847485           1
 rpro_isp                                1.712099         364
 augmentation_charge                     1.528128         181
 potlok                                  1.385391         182
 fftbrc_mpi                              1.207652        5479
 fftbas_plan_mpi                         1.204953        5479
 setdij_                                 1.143175         208
 acc_init_cusolver                       0.794877           1
 brmix                                   0.735399         180
 fornlr                                  0.619351           1
 broyd                                   0.546340         180
 map_forward                             0.425866        5124
 map_backward                            0.390055        5834
 lincom                                  0.379827       10360
 m_alltoallv_z                           0.337492        6203
 orthch                                  0.322133           1
 map_scatter                             0.233080        6203
 fft_gq                                  0.185367         180
 dfftw_execute                           0.181189        2244
 map_gather                              0.180954        6203
 proall                                  0.152371           1
 rspher_all                              0.137584          14
 acc_cufft_makeplans                     0.126310           3
 acc_cufft_makeplan                      0.126297          19
 brget                                   0.100254       38073
 setg0                                   0.083544         182
 sphpro_fast                             0.079230           2
 truncate_high_frequency_w1              0.071644      864016
 fordep                                  0.031837           1
 brsav                                   0.027051       10754
 pothar                                  0.015252         183
 choleski                                0.013493          56
 inisym                                  0.005034           1
 brpre                                   0.002870         360
 stufak                                  0.001833           1
 forhar                                  0.001303           2
 strelo                                  0.001113           1
 strehar                                 0.000797           1
 chggra                                  0.000761           1
 vectorpot                               0.000752         181
 set_dd_magatom                          0.000715         182
 forloc                                  0.000703           1
 fewald                                  0.000493           1
 strkin                                  0.000363           1
 brgrid                                  0.000118           1
 rsp                                     0.000095           1
 posmap                                  0.000036           2
 crpa_reader                             0.000028           1
 rcp                                     0.000018           1
 potlok_metagga                          0.000016         181
 rotate_active_occupied_orbital          0.000000           1
 redis_pw_over_bands                     0.000000           1
 ---------------------------------------------------------------
 
Profiling took   4.141066  2.082177  0.003643  0.003575 seconds
Profiling took   2.637270 seconds
