 vasp.6.3.2 27Jun22 (build Jul  3 2023 11:46:21) complex                         
 executed on    LinuxNV_CrayMPICH date 2024.04.21  20:20:20
 running on    4 total cores
 distrk:  each k-point on    4 cores,    1 groups
 distr:  one band on NCORE=   1 cores,    4 groups


--------------------------------------------------------------------------------------------------------


 INCAR:
   ADDGRID = True
   ALGO = Normal
   EDIFF = 0.00085
   ENCUT = 520.0
   IBRION = -1
   ICHARG = 0
   ISIF = 3
   ISMEAR = 0
   ISPIN = 2
   ISTART = 1
   KPOINT_BSE = -1 0 0 0
   LAECHG = True
   LASPH = True
   LCHARG = True
   LELF = True
   LORBIT = 11
   LREAL = Auto
   LVHAR = True
   LWAVE = False
   MAGMOM = 1*7.0 16*0.6
   NELM = 1000
   NSW = 0
   PREC = accurate
   SIGMA = 0.05

 POTCAR:    PAW_PBE Eu 23Dec2003                  
 POTCAR:    PAW_PBE Ge_d 03Jul2007                
 POTCAR:    PAW_PBE Pt 04Feb2005                  
 POTCAR:    PAW_PBE Eu 23Dec2003                  
   SHA256 =  ed303d27e7c5191953f9b15539336e6f36d9037c1d2e92e80c13d733697cb93d Eu/POTCAR             
   COPYR  = (c) Copyright 23Dec2003 Georg Kresse                                                    
   COPYR  = This file is part of the software VASP. Any use, copying, and all other rights are regul
   COPYR  = If you do not have a valid VASP license, you may not use, copy or distribute this file. 
   VRHFIN =Eu : [core=Kr4d]                                                                         
   LEXCH  = PE                                                                                      
   EATOM  =  2619.8085 eV,  192.5505 Ry                                                             
                                                                                                    
   TITEL  = PAW_PBE Eu 23Dec2003                                                                    
   LULTRA =        F    use ultrasoft PP ?                                                          
   IUNSCR =        1    unscreen: 0-lin 1-nonlin 2-no                                               
   RPACOR =    2.300    partial core radius                                                         
   POMASS =  151.965; ZVAL   =   17.000    mass and valenz                                          
   RCORE  =    2.800    outmost cutoff radius                                                       
   RWIGS  =    2.800; RWIGS  =    1.482    wigner-seitz radius (au A)                               
   ENMAX  =  249.668; ENMIN  =  187.251 eV                                                          
   RCLOC  =    2.308    cutoff for local pot                                                        
   LCOR   =        T    correct aug charges                                                         
   LPAW   =        T    paw PP                                                                      
   EAUG   =  549.628                                                                                
   DEXC   =    0.000                                                                                
   RMAX   =    2.870    core radius for proj-oper                                                   
   RAUG   =    1.300    factor for augmentation sphere                                              
   RDEP   =    2.887    radius for radial grids                                                     
   RDEPT  =    2.221    core radius for aug-charge                                                  
                                                                                                    
   Atomic configuration                                                                             
   14 entries                                                                                       
     n  l   j            E        occ.                                                              
     1  0  0.50    -48354.7667   2.0000                                                             
     2  0  0.50     -7939.6472   2.0000                                                             
     2  1  1.50     -7072.6637   6.0000                                                             
     3  0  0.50     -1747.1875   2.0000                                                             
     3  1  1.50     -1477.5221   6.0000                                                             
     3  2  2.50     -1117.4686  10.0000                                                             
     4  0  0.50      -346.8682   2.0000                                                             
     4  1  1.50      -258.1962   6.0000                                                             
     4  2  2.50      -134.7724  10.0000                                                             
     5  0  0.50       -44.6510   2.0000                                                             
     6  0  0.50        -3.6227   2.0000                                                             
     5  1  1.50       -23.7639   6.0000                                                             
     5  2  2.50        -1.3130   0.0000                                                             
     4  3  2.50        -2.7310   7.0000                                                             
   Description                                                                                      
     l       E           TYP  RCUT    TYP  RCUT                                                     
     0    -44.6510453     23  2.400                                                                 
     0     -3.6226685     23  2.400                                                                 
     1    -23.7638687     23  2.400                                                                 
     1     27.2116520     23  2.400                                                                 
     2     -1.3129622     23  2.500                                                                 
     2     13.6058260     23  2.500                                                                 
     3     -2.7309948     23  2.800                                                                 
     3     -3.4014565     23  2.800                                                                 
  local pseudopotential read in
  partial core-charges read in
  partial kinetic energy density read in
  atomic valenz-charges read in
  non local Contribution for L=            0  read in
    real space projection operators read in
  non local Contribution for L=            0  read in
    real space projection operators read in
  non local Contribution for L=            1  read in
    real space projection operators read in
  non local Contribution for L=            1  read in
    real space projection operators read in
  non local Contribution for L=            2  read in
    real space projection operators read in
  non local Contribution for L=            2  read in
    real space projection operators read in
  non local Contribution for L=            3  read in
    real space projection operators read in
  non local Contribution for L=            3  read in
    real space projection operators read in
    PAW grid and wavefunctions read in
 
   number of l-projection  operators is LMAX  =            8
   number of lm-projection operators is LMMAX =           32
 
 POTCAR:    PAW_PBE Ge_d 03Jul2007                
   SHA256 =  944b26c40d2d7c4f4eb1ff3a2e8dbfdd7129146276cd341854bfd5c0e57780ed Ge_d/POTCAR           
   COPYR  = (c) Copyright 03Jul2007 Georg Kresse                                                    
   COPYR  = This file is part of the software VASP. Any use, copying, and all other rights are regul
   COPYR  = If you do not have a valid VASP license, you may not use, copy or distribute this file. 
   VRHFIN =Ge: 3d4s4p                                                                               
   LEXCH  = PE                                                                                      
   EATOM  =  2596.2402 eV,  190.8183 Ry                                                             
                                                                                                    
   TITEL  = PAW_PBE Ge_d 03Jul2007                                                                  
   LULTRA =        F    use ultrasoft PP ?                                                          
   IUNSCR =        1    unscreen: 0-lin 1-nonlin 2-no                                               
   RPACOR =    2.000    partial core radius                                                         
   POMASS =   72.610; ZVAL   =   14.000    mass and valenz                                          
   RCORE  =    2.300    outmost cutoff radius                                                       
   RWIGS  =    2.300; RWIGS  =    1.217    wigner-seitz radius (au A)                               
   ENMAX  =  310.294; ENMIN  =  232.720 eV                                                          
   ICORE  =        3    local potential                                                             
   LCOR   =        T    correct aug charges                                                         
   LPAW   =        T    paw PP                                                                      
   EAUG   =  531.356                                                                                
   DEXC   =    0.000                                                                                
   RMAX   =    2.342    core radius for proj-oper                                                   
   RAUG   =    1.300    factor for augmentation sphere                                              
   RDEP   =    2.318    radius for radial grids                                                     
   RDEPT  =    1.783    core radius for aug-charge                                                  
                                                                                                    
   Atomic configuration                                                                             
    9 entries                                                                                       
     n  l   j            E        occ.                                                              
     1  0  0.50    -10959.8463   2.0000                                                             
     2  0  0.50     -1371.6056   2.0000                                                             
     2  1  1.50     -1198.4791   6.0000                                                             
     3  0  0.50      -168.4733   2.0000                                                             
     3  1  1.50      -115.6019   6.0000                                                             
     3  2  2.50       -29.3106  10.0000                                                             
     4  0  0.50       -11.7309   2.0000                                                             
     4  1  0.50        -3.8952   2.0000                                                             
     4  3  2.50        -4.0817   0.0000                                                             
   Description                                                                                      
     l       E           TYP  RCUT    TYP  RCUT                                                     
     2    -29.3105938     23  2.200                                                                 
     2    -13.6058260     23  2.200                                                                 
     0    -11.7309493     23  2.300                                                                 
     0     -7.4578696     23  2.300                                                                 
     1     -3.8952261     23  2.300                                                                 
     1      6.1178114     23  2.300                                                                 
     3     -1.3605826     23  2.300                                                                 
  local pseudopotential read in
  partial core-charges read in
  partial kinetic energy density read in
  atomic valenz-charges read in
  non local Contribution for L=            2  read in
    real space projection operators read in
  non local Contribution for L=            2  read in
    real space projection operators read in
  non local Contribution for L=            0  read in
    real space projection operators read in
  non local Contribution for L=            0  read in
    real space projection operators read in
  non local Contribution for L=            1  read in
    real space projection operators read in
  non local Contribution for L=            1  read in
    real space projection operators read in
    PAW grid and wavefunctions read in
 
   number of l-projection  operators is LMAX  =            6
   number of lm-projection operators is LMMAX =           18
 
 POTCAR:    PAW_PBE Pt 04Feb2005                  
   SHA256 =  3ed90460adef76debcff1cfb73ee1349b515b1a3db03439735b44de3a8db7dc8 Pt/POTCAR             
   COPYR  = (c) Copyright 04Feb2005 Georg Kresse                                                    
   COPYR  = This file is part of the software VASP. Any use, copying, and all other rights are regul
   COPYR  = If you do not have a valid VASP license, you may not use, copy or distribute this file. 
   VRHFIN =Pt: s1d9                                                                                 
   LEXCH  = PE                                                                                      
   EATOM  =   729.1176 eV,   53.5886 Ry                                                             
                                                                                                    
   TITEL  = PAW_PBE Pt 04Feb2005                                                                    
   LULTRA =        F    use ultrasoft PP ?                                                          
   IUNSCR =        1    unscreen: 0-lin 1-nonlin 2-no                                               
   RPACOR =    2.330    partial core radius                                                         
   POMASS =  195.080; ZVAL   =   10.000    mass and valenz                                          
   RCORE  =    2.600    outmost cutoff radius                                                       
   RWIGS  =    2.750; RWIGS  =    1.455    wigner-seitz radius (au A)                               
   ENMAX  =  230.283; ENMIN  =  172.712 eV                                                          
   ICORE  =        3    local potential                                                             
   LCOR   =        T    correct aug charges                                                         
   LPAW   =        T    paw PP                                                                      
   EAUG   =  358.966                                                                                
   DEXC   =    0.000                                                                                
   RMAX   =    2.658    core radius for proj-oper                                                   
   RAUG   =    1.300    factor for augmentation sphere                                              
   RDEP   =    2.761    radius for radial grids                                                     
   RDEPT  =    2.203    core radius for aug-charge                                                  
                                                                                                    
   Atomic configuration                                                                             
   16 entries                                                                                       
     n  l   j            E        occ.                                                              
     1  0  0.50    -78401.1885   2.0000                                                             
     2  0  0.50    -13770.7750   2.0000                                                             
     2  1  1.50    -11931.0468   6.0000                                                             
     3  0  0.50     -3234.7234   2.0000                                                             
     3  1  1.50     -2699.2216   6.0000                                                             
     3  2  2.50     -2119.5714  10.0000                                                             
     4  0  0.50      -695.1528   2.0000                                                             
     4  1  1.50      -519.6034   6.0000                                                             
     4  2  2.50      -306.6786  10.0000                                                             
     4  3  3.50       -70.1041  14.0000                                                             
     5  0  0.50      -101.7747   2.0000                                                             
     5  1  1.50       -55.9873   6.0000                                                             
     5  2  2.50        -6.1423   9.0000                                                             
     6  0  0.50        -5.6573   1.0000                                                             
     6  1  1.50        -6.8029   0.0000                                                             
     5  3  2.50        -1.3606   0.0000                                                             
   Description                                                                                      
     l       E           TYP  RCUT    TYP  RCUT                                                     
     2     -6.1423404     23  2.500                                                                 
     2     -7.5029230     23  2.500                                                                 
     0     -5.6573207     23  2.500                                                                 
     0      0.7416693     23  2.500                                                                 
     1     -2.7211652     23  2.600                                                                 
     1     20.4087390     23  2.600                                                                 
     3     -1.3605826     23  2.500                                                                 
  local pseudopotential read in
  partial core-charges read in
  partial kinetic energy density read in
  atomic valenz-charges read in
  non local Contribution for L=            2  read in
    real space projection operators read in
  non local Contribution for L=            2  read in
    real space projection operators read in
  non local Contribution for L=            0  read in
    real space projection operators read in
  non local Contribution for L=            0  read in
    real space projection operators read in
  non local Contribution for L=            1  read in
    real space projection operators read in
  non local Contribution for L=            1  read in
    real space projection operators read in
    PAW grid and wavefunctions read in
 
   number of l-projection  operators is LMAX  =            6
   number of lm-projection operators is LMMAX =           18
 
 Optimization of the real space projectors (new method)

 maximal supplied QI-value         = 13.42
 optimisation between [QCUT,QGAM] = [ 11.67, 23.35] = [ 38.16,152.62] Ry 
 Optimized for a Real-space Cutoff    1.63 Angstroem

   l    n(q)    QCUT    max X(q) W(low)/X(q) W(high)/X(q)  e(spline) 
   0     11    11.673    10.400    0.14E-04    0.18E-05    0.24E-07
   0     11    11.673    10.768    0.21E-04    0.32E-05    0.49E-07
   1     11    11.673     4.094    0.40E-05    0.13E-04    0.93E-07
   1     11    11.673     4.009    0.11E-04    0.46E-04    0.33E-06
   2     10    11.673    29.030    0.79E-04    0.60E-04    0.70E-06
   2     10    11.673    19.941    0.80E-04    0.60E-04    0.71E-06
   3     10    11.673    88.889    0.23E-03    0.29E-03    0.30E-06
   3     10    11.673    76.102    0.23E-03    0.30E-03    0.30E-06
 Optimization of the real space projectors (new method)

 maximal supplied QI-value         = 16.25
 optimisation between [QCUT,QGAM] = [ 11.54, 23.24] = [ 37.28,151.24] Ry 
 Optimized for a Real-space Cutoff    1.53 Angstroem

   l    n(q)    QCUT    max X(q) W(low)/X(q) W(high)/X(q)  e(spline) 
   2     10    11.539     8.936    0.13E-03    0.18E-03    0.23E-06
   2     10    11.539     8.183    0.16E-03    0.22E-03    0.28E-06
   0     11    11.539    62.777    0.61E-04    0.20E-04    0.15E-06
   0     11    11.539    50.556    0.58E-04    0.19E-04    0.14E-06
   1     10    11.539    38.422    0.20E-04    0.75E-05    0.16E-06
   1     10    11.539    22.623    0.19E-04    0.69E-05    0.15E-06
 Optimization of the real space projectors (new method)

 maximal supplied QI-value         = 14.36
 optimisation between [QCUT,QGAM] = [ 11.63, 23.27] = [ 37.90,151.59] Ry 
 Optimized for a Real-space Cutoff    1.49 Angstroem

   l    n(q)    QCUT    max X(q) W(low)/X(q) W(high)/X(q)  e(spline) 
   2      9    11.633    66.195    0.24E-03    0.97E-04    0.19E-06
   2      9    11.633    64.643    0.25E-03    0.98E-04    0.20E-06
   0     10    11.633    95.520    0.71E-04    0.29E-04    0.12E-06
   0     10    11.633    63.403    0.69E-04    0.28E-04    0.12E-06
   1     10    11.633    19.961    0.61E-04    0.16E-03    0.11E-06
   1     10    11.633    13.289    0.50E-04    0.13E-03    0.90E-07
  PAW_PBE Eu 23Dec2003                  :
 energy of atom  1       EATOM=-2619.8085
 kinetic energy error for atom=    0.0015 (will be added to EATOM!!)
  PAW_PBE Ge_d 03Jul2007                :
 energy of atom  2       EATOM=-2596.2402
 kinetic energy error for atom=    0.0028 (will be added to EATOM!!)
  PAW_PBE Pt 04Feb2005                  :
 energy of atom  3       EATOM= -729.1176
 kinetic energy error for atom=    0.0032 (will be added to EATOM!!)
 
 
 POSCAR: Eu1 Ge12 Pt4
  positions in direct lattice
  No initial velocities read in
 exchange correlation table for  LEXCH =        8
   RHO(1)=    0.500       N(1)  =     2000
   RHO(2)=  100.500       N(2)  =     4000

 VTST: version 4.2, (08/11/21)

 CHAIN: initializing optimizer
 
 OPT: Using VASP Dynamics algorithm
 CHAIN: Read ICHAIN             0
 
 POSCAR: Eu1 Ge12 Pt4
  positions in direct lattice
  No initial velocities read in
 


--------------------------------------------------------------------------------------------------------


 ion  position               nearest neighbor table
   1  0.000  0.000  0.000-
   2  0.354  0.505  0.151-  15 2.54  17 2.54   3 2.58  12 2.66
   3  0.646  0.797  0.151-  16 2.54  14 2.54   2 2.58  13 2.66
   4  0.849  0.354  0.203-  14 2.54  15 2.54   7 2.58   8 2.66
   5  0.505  0.151  0.354-  14 2.54  17 2.54   9 2.58   6 2.66
   6  0.203  0.849  0.354-  15 2.54  16 2.54  10 2.58   5 2.66
   7  0.849  0.646  0.495-  16 2.54  17 2.54   4 2.58  11 2.66
   8  0.151  0.354  0.505-  16 2.54  17 2.54  11 2.58   4 2.66
   9  0.797  0.151  0.646-  15 2.54  16 2.54   5 2.58  10 2.66
  10  0.495  0.849  0.646-  14 2.54  17 2.54   6 2.58   9 2.66
  11  0.151  0.646  0.797-  14 2.54  15 2.54   8 2.58   7 2.66
  12  0.354  0.203  0.849-  16 2.54  14 2.54  13 2.58   2 2.66
  13  0.646  0.495  0.849-  15 2.54  17 2.54  12 2.58   3 2.66
  14  0.500  0.000  0.000-   4 2.54  11 2.54  10 2.54   5 2.54   3 2.54  12 2.54
  15  0.000  0.500  0.000-   6 2.54   9 2.54   2 2.54  13 2.54  11 2.54   4 2.54
  16  0.000  0.000  0.500-   3 2.54  12 2.54   8 2.54   7 2.54   9 2.54   6 2.54
  17  0.500  0.500  0.500-   2 2.54   5 2.54   7 2.54   8 2.54  10 2.54  13 2.54
 
  LATTYP: Found a body centered cubic cell.
 ALAT       =     8.8179220000
  
  Lattice vectors:
  
 A1 = (  -4.4089610000,   4.4089610000,   4.4089610000)
 A2 = (   4.4089610000,  -4.4089610000,   4.4089610000)
 A3 = (   4.4089610000,   4.4089610000,  -4.4089610000)


Analysis of symmetry for initial positions (statically):
=====================================================================
 Subroutine PRICEL returns:
 Original cell was already a primitive cell.
 

 Routine SETGRP: Setting up the symmetry group for a 
 body centered cubic supercell.


 Subroutine GETGRP returns: Found 24 space group operations
 (whereof 24 operations were pure point group operations)
 out of a pool of 48 trial point group operations.


The static configuration has the point symmetry T_h .


Analysis of symmetry for dynamics (positions and initial velocities):
=====================================================================
 Subroutine PRICEL returns:
 Original cell was already a primitive cell.
 

 Routine SETGRP: Setting up the symmetry group for a 
 body centered cubic supercell.


 Subroutine GETGRP returns: Found 24 space group operations
 (whereof 24 operations were pure point group operations)
 out of a pool of 48 trial point group operations.


The dynamic configuration has the point symmetry T_h .


Analysis of structural, dynamic, and magnetic symmetry:
=====================================================================
 Subroutine PRICEL returns:
 Original cell was already a primitive cell.
 

 Routine SETGRP: Setting up the symmetry group for a 
 body centered cubic supercell.


 Subroutine GETGRP returns: Found 24 space group operations
 (whereof 24 operations were pure point group operations)
 out of a pool of 48 trial point group operations.


The overall configuration has the point symmetry T_h .


 Subroutine INISYM returns: Found 24 space group operations
 (whereof 24 operations are pure point group operations),
 and found     1 'primitive' translations


----------------------------------------------------------------------------------------

                                     Primitive cell                                     

  volume of cell :     342.8221

  direct lattice vectors                    reciprocal lattice vectors
    -4.408961000  4.408961000  4.408961000    -0.000000000  0.113405403  0.113405403
     4.408961000 -4.408961000  4.408961000     0.113405403 -0.000000000  0.113405403
     4.408961000  4.408961000 -4.408961000     0.113405403  0.113405403 -0.000000000

  length of vectors
     7.636544461  7.636544461  7.636544461     0.160379459  0.160379459  0.160379459

  position of ions in fractional coordinates (direct lattice)
     0.000000000  0.000000000  0.000000000
     0.353528000  0.504536000  0.151008000
     0.646472000  0.797479000  0.151008000
     0.848992000  0.353528000  0.202521000
     0.504536000  0.151008000  0.353528000
     0.202521000  0.848992000  0.353528000
     0.848992000  0.646472000  0.495464000
     0.151008000  0.353528000  0.504536000
     0.797479000  0.151008000  0.646472000
     0.495464000  0.848992000  0.646472000
     0.151008000  0.646472000  0.797479000
     0.353528000  0.202521000  0.848992000
     0.646472000  0.495464000  0.848992000
     0.500000000  1.000000000  1.000000000
     1.000000000  0.500000000  1.000000000
     1.000000000  0.000000000  0.500000000
     0.500000000  0.500000000  0.500000000

  ion indices of the primitive-cell ions
   primitive index   ion index
                 1           1
                 2           2
                 3           3
                 4           4
                 5           5
                 6           6
                 7           7
                 8           8
                 9           9
                10          10
                11          11
                12          12
                13          13
                14          14
                15          15
                16          16
                17          17

----------------------------------------------------------------------------------------

 
 
 KPOINTS: Kpoints from vasprun.xml                

Automatic generation of k-mesh.
 Grid dimensions read from file:
 generate k-points for:    4    4    4

 Generating k-lattice:

  Cartesian coordinates                     Fractional coordinates (reciprocal lattice)
    -0.000000000  0.028351351  0.028351351     0.250000000 -0.000000000 -0.000000000
     0.028351351 -0.000000000  0.028351351    -0.000000000  0.250000000  0.000000000
     0.028351351  0.028351351 -0.000000000    -0.000000000 -0.000000000  0.250000000

  Length of vectors
     0.040094865  0.040094865  0.040094865

  Shift w.r.t. Gamma in fractional coordinates (k-lattice)
     0.000000000  0.000000000  0.000000000

 
 Subroutine IBZKPT returns following result:
 ===========================================
 
 Found      8 irreducible k-points:
 
 Following reciprocal coordinates:
            Coordinates               Weight
  0.000000  0.000000  0.000000      1.000000
  0.250000  0.000000  0.000000     12.000000
  0.500000  0.000000  0.000000      6.000000
  0.250000  0.250000  0.000000     24.000000
  0.250000  0.250000  0.250000      2.000000
 -0.250000  0.250000  0.250000      6.000000
  0.500000  0.500000  0.250000     12.000000
  0.500000  0.500000  0.500000      1.000000
 
 Following cartesian coordinates:
            Coordinates               Weight
  0.000000  0.000000  0.000000      1.000000
  0.000000  0.028351  0.028351     12.000000
  0.000000  0.056703  0.056703      6.000000
  0.028351  0.028351  0.056703     24.000000
  0.056703  0.056703  0.056703      2.000000
  0.056703  0.000000  0.000000      6.000000
  0.085054  0.085054  0.113405     12.000000
  0.113405  0.113405  0.113405      1.000000
 


--------------------------------------------------------------------------------------------------------




 Dimension of arrays:
   k-points           NKPTS =      8   k-points in BZ     NKDIM =      8   number of bands    NBANDS=    144
   number of dos      NEDOS =    301   number of ions     NIONS =     17
   non local maximal  LDIM  =      8   non local SUM 2l+1 LMDIM =     32
   total plane-waves  NPLWV = 216000
   max r-space proj   IRMAX =  11421   max aug-charges    IRDMAX= 305455
   dimension x,y,z NGX =    60 NGY =   60 NGZ =   60
   dimension x,y,z NGXF=   120 NGYF=  120 NGZF=  120
   support grid    NGXF=   240 NGYF=  240 NGZF=  240
   ions per type =               1  12   4
   NGX,Y,Z   is equivalent  to a cutoff of  13.06, 13.06, 13.06 a.u.
   NGXF,Y,Z  is equivalent  to a cutoff of  26.12, 26.12, 26.12 a.u.

 SYSTEM =  unknown system                          
 POSCAR =  Eu1 Ge12 Pt4                            

 Startparameter for this run:
   NWRITE =      2    write-flag & timer
   PREC   = accura    normal or accurate (medium, high low for compatibility)
   ISTART =      0    job   : 0-new  1-cont  2-samecut
   ICHARG =      2    charge: 1-file 2-atom 10-const
   ISPIN  =      2    spin polarized calculation?
   LNONCOLLINEAR =      F non collinear calculations
   LSORBIT =      F    spin-orbit coupling
   INIWAV =      1    electr: 0-lowe 1-rand  2-diag
   LASPH  =      T    aspherical Exc in radial PAW
 Electronic Relaxation 1
   ENCUT  =  520.0 eV  38.22 Ry    6.18 a.u.  14.20 14.20 14.20*2*pi/ulx,y,z
   ENINI  =  520.0     initial cutoff
   ENAUG  =  549.6 eV  augmentation charge cutoff
   NELM   =   1000;   NELMIN=  2; NELMDL=  0     # of ELM steps 
   EDIFF  = 0.8E-03   stopping-criterion for ELM
   LREAL  =      T    real-space projection
   NLSPLINE    = F    spline interpolate recip. space projectors
   LCOMPAT=      F    compatible to vasp.4.4
   GGA_COMPAT  = T    GGA compatible to vasp.4.4-vasp.4.6
   LMAXPAW     = -100 max onsite density
   LMAXMIX     =    2 max onsite mixed and CHGCAR
   VOSKOWN=      0    Vosko Wilk Nusair interpolation
   ROPT   =   -0.00025  -0.00025  -0.00025
 Ionic relaxation
   EDIFFG = 0.8E-02   stopping-criterion for IOM
   NSW    =      0    number of steps for IOM
   NBLOCK =      1;   KBLOCK =      1    inner block; outer block 
   IBRION =     -1    ionic relax: 0-MD 1-quasi-New 2-CG
   NFREE  =      0    steps in history (QN), initial steepest desc. (CG)
   ISIF   =      3    stress and relaxation
   IWAVPR =     10    prediction:  0-non 1-charg 2-wave 3-comb
   ISYM   =      2    0-nonsym 1-usesym 2-fastsym
   LCORR  =      T    Harris-Foulkes like correction to forces

   POTIM  = 0.5000    time-step for ionic-motion
   TEIN   =    0.0    initial temperature
   TEBEG  =    0.0;   TEEND  =   0.0 temperature during run
   SMASS  =  -3.00    Nose mass-parameter (am)
   estimated Nose-frequenzy (Omega)   =  0.10E-29 period in steps = 0.13E+47 mass=  -0.133E-26a.u.
   SCALEE = 1.0000    scale energy and forces
   NPACO  =    256;   APACO  = 10.0  distance and # of slots for P.C.
   PSTRESS=    0.0 pullay stress

  Mass of Ions in am
   POMASS = 151.97 72.61195.08
  Ionic Valenz
   ZVAL   =  17.00 14.00 10.00
  Atomic Wigner-Seitz radii
   RWIGS  =  -1.00 -1.00 -1.00
  virtual crystal weights 
   VCA    =   1.00  1.00  1.00
   NELECT =     225.0000    total number of electrons
   NUPDOWN=      -1.0000    fix difference up-down

 DOS related values:
   EMIN   =  10.00;   EMAX   =-10.00  energy-range for DOS
   EFERMI =   0.00
   ISMEAR =     0;   SIGMA  =   0.05  broadening in eV -4-tet -1-fermi 0-gaus

 Electronic relaxation 2 (details)
   IALGO  =     38    algorithm
   LDIAG  =      T    sub-space diagonalisation (order eigenvalues)
   LSUBROT=      F    optimize rotation matrix (better conditioning)
   TURBO    =      0    0=normal 1=particle mesh
   IRESTART =      0    0=no restart 2=restart with 2 vectors
   NREBOOT  =      0    no. of reboots
   NMIN     =      0    reboot dimension
   EREF     =   0.00    reference energy to select bands
   IMIX   =      4    mixing-type and parameters
     AMIX     =   0.40;   BMIX     =  1.00
     AMIX_MAG =   1.60;   BMIX_MAG =  1.00
     AMIN     =   0.10
     WC   =   100.;   INIMIX=   1;  MIXPRE=   1;  MAXMIX= -45

 Intra band minimization:
   WEIMIN = 0.0000     energy-eigenvalue tresh-hold
   EBREAK =  0.15E-05  absolut break condition
   DEPER  =   0.30     relativ break condition  

   TIME   =   0.40     timestep for ELM

  volume/ion in A,a.u.               =      20.17       136.09
  Fermi-wavevector in a.u.,A,eV,Ry     =   1.422698  2.688510 27.539142  2.024070
  Thomas-Fermi vector in A             =   2.543374
 
 Write flags
   LWAVE        =      F    write WAVECAR
   LDOWNSAMPLE  =      F    k-point downsampling of WAVECAR
   LCHARG       =      T    write CHGCAR
   LVTOT        =      F    write LOCPOT, total local potential
   LVHAR        =      T    write LOCPOT, Hartree potential only
   LELF         =      T    write electronic localiz. function (ELF)
   LORBIT       =     11    0 simple, 1 ext, 2 COOP (PROOUT), +10 PAW based schemes


 Dipole corrections
   LMONO  =      F    monopole corrections only (constant potential shift)
   LDIPOL =      F    correct potential (dipole corrections)
   IDIPOL =      0    1-x, 2-y, 3-z, 4-all directions 
   EPSILON=  1.0000000 bulk dielectric constant

 Exchange correlation treatment:
   GGA     =    --    GGA type
   LEXCH   =     8    internal setting for exchange type
   LIBXC   =     F    Libxc                    
   VOSKOWN =     0    Vosko Wilk Nusair interpolation
   LHFCALC =     F    Hartree Fock is set to
   LHFONE  =     F    Hartree Fock one center treatment
   AEXX    =    0.0000 exact exchange contribution

 Linear response parameters
   LEPSILON=     F    determine dielectric tensor
   LRPA    =     F    only Hartree local field effects (RPA)
   LNABLA  =     F    use nabla operator in PAW spheres
   LVEL    =     F    velocity operator in full k-point grid
   CSHIFT  =0.1000    complex shift for real part using Kramers Kronig
   OMEGAMAX=  -1.0    maximum frequency
   DEG_THRESHOLD= 0.2000000E-02 threshold for treating states as degnerate
   RTIME   =   -0.100 relaxation time in fs
  (WPLASMAI=    0.000 imaginary part of plasma frequency in eV, 0.658/RTIME)
   DFIELD  = 0.0000000 0.0000000 0.0000000 field for delta impulse in time
 
  Optional k-point grid parameters
   LKPOINTS_OPT  =     F    use optional k-point grid
   KPOINTS_OPT_MODE=     1    mode for optional k-point grid
 
 Orbital magnetization related:
   ORBITALMAG=     F  switch on orbital magnetization
   LCHIMAG   =     F  perturbation theory with respect to B field
   DQ        =  0.001000  dq finite difference perturbation B field
   LLRAUG    =     F  two centre corrections for induced B field



--------------------------------------------------------------------------------------------------------


 Static calculation
 charge density and potential will be updated during run
 spin polarized calculation
 Variant of blocked Davidson
 Davidson routine will perform the subspace rotation
 perform sub-space diagonalisation
    after iterative eigenvector-optimisation
 modified Broyden-mixing scheme, WC =      100.0
 initial mixing is a Kerker type mixing with AMIX =  0.4000 and BMIX =      1.0000
 Hartree-type preconditioning will be used
 using additional bands            31
 real space projection scheme for non local part
 use partial core corrections
 calculate Harris-corrections to forces 
   (improved forces if not selfconsistent)
 use gradient corrections 
 use of overlap-Matrix (Vanderbilt PP)
 Gauss-broadening in eV      SIGMA  =   0.05


--------------------------------------------------------------------------------------------------------


  energy-cutoff  :      520.00
  volume of cell :      342.82
      direct lattice vectors                 reciprocal lattice vectors
    -4.408961000  4.408961000  4.408961000    -0.000000000  0.113405403  0.113405403
     4.408961000 -4.408961000  4.408961000     0.113405403 -0.000000000  0.113405403
     4.408961000  4.408961000 -4.408961000     0.113405403  0.113405403 -0.000000000

  length of vectors
     7.636544461  7.636544461  7.636544461     0.160379459  0.160379459  0.160379459


 
 k-points in units of 2pi/SCALE and weight: Kpoints from vasprun.xml                
   0.00000000  0.00000000  0.00000000       0.016
   0.00000000  0.02835135  0.02835135       0.188
   0.00000000  0.05670270  0.05670270       0.094
   0.02835135  0.02835135  0.05670270       0.375
   0.05670270  0.05670270  0.05670270       0.031
   0.05670270  0.00000000  0.00000000       0.094
   0.08505405  0.08505405  0.11340540       0.188
   0.11340540  0.11340540  0.11340540       0.016
 
 k-points in reciprocal lattice and weights: Kpoints from vasprun.xml                
   0.00000000  0.00000000  0.00000000       0.016
   0.25000000  0.00000000  0.00000000       0.188
   0.50000000  0.00000000  0.00000000       0.094
   0.25000000  0.25000000  0.00000000       0.375
   0.25000000  0.25000000  0.25000000       0.031
  -0.25000000  0.25000000  0.25000000       0.094
   0.50000000  0.50000000  0.25000000       0.188
   0.50000000  0.50000000  0.50000000       0.016
 
 position of ions in fractional coordinates (direct lattice) 
   0.00000000  0.00000000  0.00000000
   0.35352800  0.50453600  0.15100800
   0.64647200  0.79747900  0.15100800
   0.84899200  0.35352800  0.20252100
   0.50453600  0.15100800  0.35352800
   0.20252100  0.84899200  0.35352800
   0.84899200  0.64647200  0.49546400
   0.15100800  0.35352800  0.50453600
   0.79747900  0.15100800  0.64647200
   0.49546400  0.84899200  0.64647200
   0.15100800  0.64647200  0.79747900
   0.35352800  0.20252100  0.84899200
   0.64647200  0.49546400  0.84899200
   0.50000000  0.00000000  0.00000000
   0.00000000  0.50000000  0.00000000
   0.00000000  0.00000000  0.50000000
   0.50000000  0.50000000  0.50000000
 
 position of ions in cartesian coordinates  (Angst):
   0.00000000  0.00000000  0.00000000
   1.33157677 -0.00000000  3.11738233
   1.33157236  0.00000441  5.70053526
  -1.29157426  3.07738864  4.40895659
  -0.00000000  3.11738233  1.33157677
   4.40895659 -1.29157426  3.07738864
   1.29157867  3.07738423  4.40896100
   3.11738233  1.33157677 -0.00000000
   0.00000441  5.70053526  1.33157236
   4.40896100  1.29157867  3.07738423
   5.70053526  1.33157236  0.00000441
   3.07738864  4.40895659 -1.29157426
   3.07738423  4.40896100  1.29157867
  -2.20448050  2.20448050  2.20448050
   2.20448050 -2.20448050  2.20448050
   2.20448050  2.20448050 -2.20448050
   2.20448050  2.20448050  2.20448050
 


--------------------------------------------------------------------------------------------------------


 k-point   1 :   0.0000 0.0000 0.0000  plane waves:    9213
 k-point   2 :   0.2500 0.0000 0.0000  plane waves:    9231
 k-point   3 :   0.5000 0.0000 0.0000  plane waves:    9264
 k-point   4 :   0.2500 0.2500 0.0000  plane waves:    9219
 k-point   5 :   0.2500 0.2500 0.2500  plane waves:    9252
 k-point   6 :  -0.2500 0.2500 0.2500  plane waves:    9232
 k-point   7 :   0.5000 0.5000 0.2500  plane waves:    9242
 k-point   8 :   0.5000 0.5000 0.5000  plane waves:    9136

 maximum and minimum number of plane-waves per node :      9264     9136

 maximum number of plane-waves:      9264
 maximum index in each direction: 
   IXMAX=   14   IYMAX=   14   IZMAX=   14
   IXMIN=  -14   IYMIN=  -14   IZMIN=  -14


 serial   3D FFT for wavefunctions
 parallel 3D FFT for charge:
    minimum data exchange during FFTs selected (reduces bandwidth)


 total amount of memory used by VASP MPI-rank0   269565. kBytes
=======================================================================

   base      :      30000. kBytes
   nonlr-proj:      29298. kBytes
   fftplans  :      64341. kBytes
   grid      :      55929. kBytes
   one-center:       1671. kBytes
   wavefun   :      88326. kBytes
 
     INWAV:  cpu time      0.0003: real time      0.0004
 Broyden mixing: mesh for mixing (old mesh)
   NGX = 29   NGY = 29   NGZ = 29
  (NGX  =120   NGY  =120   NGZ  =120)
  gives a total of  24389 points

 initial charge density was supplied:
 charge density of overlapping atoms calculated
 number of electron     225.0000000 magnetization      16.6000000
 keeping initial charge density in first step


--------------------------------------------------------------------------------------------------------


 Maximum index for non-local projection operator         11017
 Maximum index for augmentation-charges         74209 (set IRDMAX)


--------------------------------------------------------------------------------------------------------


 First call to EWALD:  gamma=   0.253
 Maximum number of real-space cells 3x 3x 3
 Maximum number of reciprocal cells 3x 3x 3

    FEWALD:  cpu time      0.0010: real time      0.0010


--------------------------------------- Iteration      1(   1)  ---------------------------------------


    POTLOK:  cpu time      0.1072: real time      0.1587
    SETDIJ:  cpu time      3.3001: real time      3.3012
     EDDAV:  cpu time      2.9427: real time      2.9535
       DOS:  cpu time      0.0009: real time      0.0009
    --------------------------------------------
      LOOP:  cpu time      6.3509: real time      6.4143

 eigenvalue-minimisations  :  5744
 total energy-change (2. order) : 0.3673057E+04  (-0.7995807E+04)
 number of electron     225.0000000 magnetization      16.6000000
 augmentation part      225.0000000 magnetization      16.6000000

 Free energy of the ion-electron system (eV)
  ---------------------------------------------------
  alpha Z        PSCENC =      1270.41419750
  Ewald energy   TEWEN  =    -22514.94584936
  -Hartree energ DENC   =     -9208.06482041
  -exchange      EXHF   =         0.00000000
  -V(xc)+E(xc)   XCENC  =       976.97116371
  PAW double counting   =     27038.14100549   -32288.24043754
  entropy T*S    EENTRO =        -0.00820109
  eigenvalues    EBANDS =      1707.67614213
  atomic energy  EATOM  =     36691.11340606
  Solvation  Ediel_sol  =         0.00000000
  ---------------------------------------------------
  free energy    TOTEN  =      3673.05660648 eV

  energy without entropy =     3673.06480758  energy(sigma->0) =     3673.06070703


--------------------------------------------------------------------------------------------------------




--------------------------------------- Iteration      1(   2)  ---------------------------------------


     EDDAV:  cpu time      2.4747: real time      2.4766
       DOS:  cpu time      0.0007: real time      0.0007
    --------------------------------------------
      LOOP:  cpu time      2.4754: real time      2.4772

 eigenvalue-minimisations  :  4640
 total energy-change (2. order) :-0.2845943E+04  (-0.2658683E+04)
 number of electron     225.0000000 magnetization      16.6000000
 augmentation part      225.0000000 magnetization      16.6000000

 Free energy of the ion-electron system (eV)
  ---------------------------------------------------
  alpha Z        PSCENC =      1270.41419750
  Ewald energy   TEWEN  =    -22514.94584936
  -Hartree energ DENC   =     -9208.06482041
  -exchange      EXHF   =         0.00000000
  -V(xc)+E(xc)   XCENC  =       976.97116371
  PAW double counting   =     27038.14100549   -32288.24043754
  entropy T*S    EENTRO =        -0.01271875
  eigenvalues    EBANDS =     -1138.26266897
  atomic energy  EATOM  =     36691.11340606
  Solvation  Ediel_sol  =         0.00000000
  ---------------------------------------------------
  free energy    TOTEN  =       827.11327772 eV

  energy without entropy =      827.12599648  energy(sigma->0) =      827.11963710


--------------------------------------------------------------------------------------------------------




--------------------------------------- Iteration      1(   3)  ---------------------------------------


     EDDAV:  cpu time      2.4709: real time      2.4730
       DOS:  cpu time      0.0007: real time      0.0007
    --------------------------------------------
      LOOP:  cpu time      2.4715: real time      2.4736

 eigenvalue-minimisations  :  4648
 total energy-change (2. order) :-0.8033430E+03  (-0.7305535E+03)
 number of electron     225.0000000 magnetization      16.6000000
 augmentation part      225.0000000 magnetization      16.6000000

 Free energy of the ion-electron system (eV)
  ---------------------------------------------------
  alpha Z        PSCENC =      1270.41419750
  Ewald energy   TEWEN  =    -22514.94584936
  -Hartree energ DENC   =     -9208.06482041
  -exchange      EXHF   =         0.00000000
  -V(xc)+E(xc)   XCENC  =       976.97116371
  PAW double counting   =     27038.14100549   -32288.24043754
  entropy T*S    EENTRO =        -0.01352825
  eigenvalues    EBANDS =     -1941.60486160
  atomic energy  EATOM  =     36691.11340606
  Solvation  Ediel_sol  =         0.00000000
  ---------------------------------------------------
  free energy    TOTEN  =        23.77027560 eV

  energy without entropy =       23.78380384  energy(sigma->0) =       23.77703972


--------------------------------------------------------------------------------------------------------




--------------------------------------- Iteration      1(   4)  ---------------------------------------


     EDDAV:  cpu time      2.8006: real time      2.8026
       DOS:  cpu time      0.0007: real time      0.0007
    --------------------------------------------
      LOOP:  cpu time      2.8013: real time      2.8033

 eigenvalue-minimisations  :  5496
 total energy-change (2. order) :-0.1169326E+03  (-0.1070453E+03)
 number of electron     225.0000000 magnetization      16.6000000
 augmentation part      225.0000000 magnetization      16.6000000

 Free energy of the ion-electron system (eV)
  ---------------------------------------------------
  alpha Z        PSCENC =      1270.41419750
  Ewald energy   TEWEN  =    -22514.94584936
  -Hartree energ DENC   =     -9208.06482041
  -exchange      EXHF   =         0.00000000
  -V(xc)+E(xc)   XCENC  =       976.97116371
  PAW double counting   =     27038.14100549   -32288.24043754
  entropy T*S    EENTRO =        -0.03422211
  eigenvalues    EBANDS =     -2058.51679596
  atomic energy  EATOM  =     36691.11340606
  Solvation  Ediel_sol  =         0.00000000
  ---------------------------------------------------
  free energy    TOTEN  =       -93.16235263 eV

  energy without entropy =      -93.12813052  energy(sigma->0) =      -93.14524157


--------------------------------------------------------------------------------------------------------




--------------------------------------- Iteration      1(   5)  ---------------------------------------


     EDDAV:  cpu time      2.8375: real time      2.8398
       DOS:  cpu time      0.0007: real time      0.0007
    CHARGE:  cpu time      0.2999: real time      0.3004
    MIXING:  cpu time      0.0047: real time      0.0047
    --------------------------------------------
      LOOP:  cpu time      3.1428: real time      3.1456

 eigenvalue-minimisations  :  5584
 total energy-change (2. order) :-0.7475958E+01  (-0.7244086E+01)
 number of electron     225.0000007 magnetization       4.0495416
 augmentation part      111.8470792 magnetization       3.8496909

 Broyden mixing:
  rms(total) = 0.55273E+01    rms(broyden)= 0.55273E+01
  rms(prec ) = 0.10049E+02
  weight for this iteration     100.00

 Free energy of the ion-electron system (eV)
  ---------------------------------------------------
  alpha Z        PSCENC =      1270.41419750
  Ewald energy   TEWEN  =    -22514.94584936
  -Hartree energ DENC   =     -9208.06482041
  -exchange      EXHF   =         0.00000000
  -V(xc)+E(xc)   XCENC  =       976.97116371
  PAW double counting   =     27038.14100549   -32288.24043754
  entropy T*S    EENTRO =        -0.02780555
  eigenvalues    EBANDS =     -2065.99917039
  atomic energy  EATOM  =     36691.11340606
  Solvation  Ediel_sol  =         0.00000000
  ---------------------------------------------------
  free energy    TOTEN  =      -100.63831050 eV

  energy without entropy =     -100.61050494  energy(sigma->0) =     -100.62440772


--------------------------------------------------------------------------------------------------------




--------------------------------------- Iteration      1(   6)  ---------------------------------------


    POTLOK:  cpu time      0.0111: real time      0.0117
    SETDIJ:  cpu time      3.2914: real time      3.2929
     EDDAV:  cpu time      3.6133: real time      3.6154
       DOS:  cpu time      0.0006: real time      0.0006
    CHARGE:  cpu time      0.2908: real time      0.2909
    MIXING:  cpu time      0.0065: real time      0.0096
    --------------------------------------------
      LOOP:  cpu time      7.2138: real time      7.2212

 eigenvalue-minimisations  :  7544
 total energy-change (2. order) :-0.4011424E+03  (-0.3431095E+02)
 number of electron     225.0000008 magnetization       3.4519916
 augmentation part      125.3931293 magnetization       2.1929166

 Broyden mixing:
  rms(total) = 0.15552E+02    rms(broyden)= 0.15552E+02
  rms(prec ) = 0.26422E+02
  weight for this iteration     100.00

 eigenvalues of (default mixing * dielectric matrix)
  average eigenvalue GAMMA=   0.2415
  0.2415

 Free energy of the ion-electron system (eV)
  ---------------------------------------------------
  alpha Z        PSCENC =      1270.41419750
  Ewald energy   TEWEN  =    -22514.94584936
  -Hartree energ DENC   =     -8968.70085291
  -exchange      EXHF   =         0.00000000
  -V(xc)+E(xc)   XCENC  =       962.93074797
  PAW double counting   =     28856.39477801   -34062.30058545
  entropy T*S    EENTRO =        -0.01679949
  eigenvalues    EBANDS =     -2736.66970864
  atomic energy  EATOM  =     36691.11340606
  Solvation  Ediel_sol  =         0.00000000
  ---------------------------------------------------
  free energy    TOTEN  =      -501.78066631 eV

  energy without entropy =     -501.76386682  energy(sigma->0) =     -501.77226656


--------------------------------------------------------------------------------------------------------




--------------------------------------- Iteration      1(   7)  ---------------------------------------


    POTLOK:  cpu time      0.0113: real time      0.0117
    SETDIJ:  cpu time      3.2908: real time      3.2922
     EDDAV:  cpu time      2.7847: real time      2.7876
       DOS:  cpu time      0.0007: real time      0.0007
    CHARGE:  cpu time      0.2965: real time      0.2970
    MIXING:  cpu time      0.0041: real time      0.0041
    --------------------------------------------
      LOOP:  cpu time      6.3882: real time      6.3933

 eigenvalue-minimisations  :  5448
 total energy-change (2. order) : 0.3148912E+03  (-0.1651179E+02)
 number of electron     225.0000008 magnetization       3.2082483
 augmentation part      126.3146432 magnetization       1.3598807

 Broyden mixing:
  rms(total) = 0.74601E+01    rms(broyden)= 0.74601E+01
  rms(prec ) = 0.14320E+02
  weight for this iteration     100.00

 eigenvalues of (default mixing * dielectric matrix)
  average eigenvalue GAMMA=   0.4515
  0.4515  0.4515

 Free energy of the ion-electron system (eV)
  ---------------------------------------------------
  alpha Z        PSCENC =      1270.41419750
  Ewald energy   TEWEN  =    -22514.94584936
  -Hartree energ DENC   =     -9045.61850918
  -exchange      EXHF   =         0.00000000
  -V(xc)+E(xc)   XCENC  =       967.17532246
  PAW double counting   =     29227.95746029   -34463.29377723
  entropy T*S    EENTRO =        -0.01437429
  eigenvalues    EBANDS =     -2319.67731936
  atomic energy  EATOM  =     36691.11340606
  Solvation  Ediel_sol  =         0.00000000
  ---------------------------------------------------
  free energy    TOTEN  =      -186.88944310 eV

  energy without entropy =     -186.87506882  energy(sigma->0) =     -186.88225596


--------------------------------------------------------------------------------------------------------




--------------------------------------- Iteration      1(   8)  ---------------------------------------


    POTLOK:  cpu time      0.0114: real time      0.0118
    SETDIJ:  cpu time      3.3085: real time      3.3109
     EDDAV:  cpu time      2.8162: real time      2.8184
       DOS:  cpu time      0.0007: real time      0.0007
    CHARGE:  cpu time      0.2921: real time      0.2922
    MIXING:  cpu time      0.0042: real time      0.0042
    --------------------------------------------
      LOOP:  cpu time      6.4330: real time      6.4382

 eigenvalue-minimisations  :  5552
 total energy-change (2. order) : 0.8775739E+02  (-0.1248269E+02)
 number of electron     225.0000007 magnetization       1.6322839
 augmentation part      112.2586443 magnetization       1.0118643

 Broyden mixing:
  rms(total) = 0.47184E+01    rms(broyden)= 0.47184E+01
  rms(prec ) = 0.99882E+01
  weight for this iteration     100.00

 eigenvalues of (default mixing * dielectric matrix)
  average eigenvalue GAMMA=   0.5001
  0.8931  0.3036  0.3036

 Free energy of the ion-electron system (eV)
  ---------------------------------------------------
  alpha Z        PSCENC =      1270.41419750
  Ewald energy   TEWEN  =    -22514.94584936
  -Hartree energ DENC   =     -9122.36240413
  -exchange      EXHF   =         0.00000000
  -V(xc)+E(xc)   XCENC  =       970.49255401
  PAW double counting   =     29781.25786893   -35056.95822477
  entropy T*S    EENTRO =        -0.01351718
  eigenvalues    EBANDS =     -2118.13008801
  atomic energy  EATOM  =     36691.11340606
  Solvation  Ediel_sol  =         0.00000000
  ---------------------------------------------------
  free energy    TOTEN  =       -99.13205695 eV

  energy without entropy =      -99.11853977  energy(sigma->0) =      -99.12529836


--------------------------------------------------------------------------------------------------------




--------------------------------------- Iteration      1(   9)  ---------------------------------------


    POTLOK:  cpu time      0.0109: real time      0.0117
    SETDIJ:  cpu time      3.2965: real time      3.2979
     EDDAV:  cpu time      2.8384: real time      2.8395
       DOS:  cpu time      0.0007: real time      0.0007
    CHARGE:  cpu time      0.2926: real time      0.2928
    MIXING:  cpu time      0.0057: real time      0.0057
    --------------------------------------------
      LOOP:  cpu time      6.4449: real time      6.4483

 eigenvalue-minimisations  :  5616
 total energy-change (2. order) :-0.1994300E+01  (-0.3846749E+01)
 number of electron     225.0000008 magnetization       1.0210783
 augmentation part      125.0967750 magnetization       0.5618486

 Broyden mixing:
  rms(total) = 0.50935E+01    rms(broyden)= 0.50935E+01
  rms(prec ) = 0.11417E+02
  weight for this iteration     100.00

 eigenvalues of (default mixing * dielectric matrix)
  average eigenvalue GAMMA=   0.4885
  0.9543  0.3753  0.3753  0.2491

 Free energy of the ion-electron system (eV)
  ---------------------------------------------------
  alpha Z        PSCENC =      1270.41419750
  Ewald energy   TEWEN  =    -22514.94584936
  -Hartree energ DENC   =     -9082.53101302
  -exchange      EXHF   =         0.00000000
  -V(xc)+E(xc)   XCENC  =       968.48260015
  PAW double counting   =     30597.84086923   -35866.44121567
  entropy T*S    EENTRO =        -0.01823563
  eigenvalues    EBANDS =     -2165.04111613
  atomic energy  EATOM  =     36691.11340606
  Solvation  Ediel_sol  =         0.00000000
  ---------------------------------------------------
  free energy    TOTEN  =      -101.12635688 eV

  energy without entropy =     -101.10812125  energy(sigma->0) =     -101.11723906


--------------------------------------------------------------------------------------------------------




--------------------------------------- Iteration      1(  10)  ---------------------------------------


    POTLOK:  cpu time      0.0109: real time      0.0120
    SETDIJ:  cpu time      3.2916: real time      3.2932
     EDDAV:  cpu time      3.0348: real time      3.0373
       DOS:  cpu time      0.0007: real time      0.0007
    CHARGE:  cpu time      0.2962: real time      0.2964
    MIXING:  cpu time      0.0052: real time      0.0052
    --------------------------------------------
      LOOP:  cpu time      6.6395: real time      6.6448

 eigenvalue-minimisations  :  6096
 total energy-change (2. order) : 0.9530158E+01  (-0.1765430E+00)
 number of electron     225.0000008 magnetization       0.7833498
 augmentation part      124.7255118 magnetization       0.5098394

 Broyden mixing:
  rms(total) = 0.46273E+01    rms(broyden)= 0.46273E+01
  rms(prec ) = 0.10325E+02
  weight for this iteration     100.00

 eigenvalues of (default mixing * dielectric matrix)
  average eigenvalue GAMMA=   0.6376
  0.9103  0.9103  0.8212  0.2731  0.2731

 Free energy of the ion-electron system (eV)
  ---------------------------------------------------
  alpha Z        PSCENC =      1270.41419750
  Ewald energy   TEWEN  =    -22514.94584936
  -Hartree energ DENC   =     -9080.79905373
  -exchange      EXHF   =         0.00000000
  -V(xc)+E(xc)   XCENC  =       968.44269025
  PAW double counting   =     30787.05836219   -36062.69743727
  entropy T*S    EENTRO =        -0.02438001
  eigenvalues    EBANDS =     -2150.15813479
  atomic energy  EATOM  =     36691.11340606
  Solvation  Ediel_sol  =         0.00000000
  ---------------------------------------------------
  free energy    TOTEN  =       -91.59619916 eV

  energy without entropy =      -91.57181914  energy(sigma->0) =      -91.58400915


--------------------------------------------------------------------------------------------------------




--------------------------------------- Iteration      1(  11)  ---------------------------------------


    POTLOK:  cpu time      0.0113: real time      0.0121
    SETDIJ:  cpu time      3.3383: real time      3.3403
     EDDAV:  cpu time      2.9416: real time      2.9435
       DOS:  cpu time      0.0007: real time      0.0007
    CHARGE:  cpu time      0.2919: real time      0.2921
    MIXING:  cpu time      0.0063: real time      0.0063
    --------------------------------------------
      LOOP:  cpu time      6.5902: real time      6.5950

 eigenvalue-minimisations  :  5808
 total energy-change (2. order) : 0.3210813E+01  (-0.2689237E+00)
 number of electron     225.0000007 magnetization       0.0913385
 augmentation part      120.6064834 magnetization      -0.0124849

 Broyden mixing:
  rms(total) = 0.16528E+01    rms(broyden)= 0.16527E+01
  rms(prec ) = 0.35944E+01
  weight for this iteration     100.00

 eigenvalues of (default mixing * dielectric matrix)
  average eigenvalue GAMMA=   0.7085
  1.1755  1.1755  0.6768  0.6768  0.2731  0.2731

 Free energy of the ion-electron system (eV)
  ---------------------------------------------------
  alpha Z        PSCENC =      1270.41419750
  Ewald energy   TEWEN  =    -22514.94584936
  -Hartree energ DENC   =     -9082.70395319
  -exchange      EXHF   =         0.00000000
  -V(xc)+E(xc)   XCENC  =       968.59991011
  PAW double counting   =     30809.54435874   -36085.94559984
  entropy T*S    EENTRO =        -0.10157040
  eigenvalues    EBANDS =     -2144.36028570
  atomic energy  EATOM  =     36691.11340606
  Solvation  Ediel_sol  =         0.00000000
  ---------------------------------------------------
  free energy    TOTEN  =       -88.38538609 eV

  energy without entropy =      -88.28381569  energy(sigma->0) =      -88.33460089


--------------------------------------------------------------------------------------------------------




--------------------------------------- Iteration      1(  12)  ---------------------------------------


    POTLOK:  cpu time      0.0112: real time      0.0120
    SETDIJ:  cpu time      3.3187: real time      3.3202
     EDDAV:  cpu time      2.7893: real time      2.7908
       DOS:  cpu time      0.0008: real time      0.0008
    CHARGE:  cpu time      0.2915: real time      0.2916
    MIXING:  cpu time      0.0052: real time      0.0052
    --------------------------------------------
      LOOP:  cpu time      6.4167: real time      6.4205

 eigenvalue-minimisations  :  5432
 total energy-change (2. order) :-0.1084136E+01  (-0.1298832E+00)
 number of electron     225.0000007 magnetization       0.1280075
 augmentation part      121.5281978 magnetization      -0.1340881

 Broyden mixing:
  rms(total) = 0.29556E+01    rms(broyden)= 0.29556E+01
  rms(prec ) = 0.53677E+01
  weight for this iteration     100.00

 eigenvalues of (default mixing * dielectric matrix)
  average eigenvalue GAMMA=   0.6023
  1.0436  1.0436  0.7701  0.7701  0.2732  0.2732  0.0425

 Free energy of the ion-electron system (eV)
  ---------------------------------------------------
  alpha Z        PSCENC =      1270.41419750
  Ewald energy   TEWEN  =    -22514.94584936
  -Hartree energ DENC   =     -9069.30471881
  -exchange      EXHF   =         0.00000000
  -V(xc)+E(xc)   XCENC  =       968.18636805
  PAW double counting   =     31095.04768324   -36374.23567539
  entropy T*S    EENTRO =        -0.03456391
  eigenvalues    EBANDS =     -2155.71036978
  atomic energy  EATOM  =     36691.11340606
  Solvation  Ediel_sol  =         0.00000000
  ---------------------------------------------------
  free energy    TOTEN  =       -89.46952240 eV

  energy without entropy =      -89.43495850  energy(sigma->0) =      -89.45224045


--------------------------------------------------------------------------------------------------------




--------------------------------------- Iteration      1(  13)  ---------------------------------------


    POTLOK:  cpu time      0.0107: real time      0.0117
    SETDIJ:  cpu time      3.2977: real time      3.2988
     EDDAV:  cpu time      2.8864: real time      2.8877
       DOS:  cpu time      0.0007: real time      0.0007
    CHARGE:  cpu time      0.2924: real time      0.2927
    MIXING:  cpu time      0.0054: real time      0.0054
    --------------------------------------------
      LOOP:  cpu time      6.4934: real time      6.4971

 eigenvalue-minimisations  :  5712
 total energy-change (2. order) :-0.3849430E+00  (-0.1919885E+00)
 number of electron     225.0000007 magnetization      -0.0303031
 augmentation part      120.7036920 magnetization      -0.3608218

 Broyden mixing:
  rms(total) = 0.24384E+01    rms(broyden)= 0.24384E+01
  rms(prec ) = 0.41004E+01
  weight for this iteration     100.00

 eigenvalues of (default mixing * dielectric matrix)
  average eigenvalue GAMMA=   0.5434
  1.0222  1.0222  0.8057  0.8057  0.2735  0.2735  0.1056  0.0390

 Free energy of the ion-electron system (eV)
  ---------------------------------------------------
  alpha Z        PSCENC =      1270.41419750
  Ewald energy   TEWEN  =    -22514.94584936
  -Hartree energ DENC   =     -9069.70794567
  -exchange      EXHF   =         0.00000000
  -V(xc)+E(xc)   XCENC  =       968.20779946
  PAW double counting   =     31089.54471980   -36368.82481132
  entropy T*S    EENTRO =        -0.03366805
  eigenvalues    EBANDS =     -2155.62231382
  atomic energy  EATOM  =     36691.11340606
  Solvation  Ediel_sol  =         0.00000000
  ---------------------------------------------------
  free energy    TOTEN  =       -89.85446540 eV

  energy without entropy =      -89.82079735  energy(sigma->0) =      -89.83763137


--------------------------------------------------------------------------------------------------------




--------------------------------------- Iteration      1(  14)  ---------------------------------------


    POTLOK:  cpu time      0.0106: real time      0.0118
    SETDIJ:  cpu time      3.3062: real time      3.3073
     EDDAV:  cpu time      2.5005: real time      2.5017
       DOS:  cpu time      0.0007: real time      0.0007
    CHARGE:  cpu time      0.2951: real time      0.2954
    MIXING:  cpu time      0.0048: real time      0.0048
    --------------------------------------------
      LOOP:  cpu time      6.1180: real time      6.1218

 eigenvalue-minimisations  :  4680
 total energy-change (2. order) :-0.4624510E+00  (-0.1673412E+00)
 number of electron     225.0000007 magnetization      -0.1958760
 augmentation part      120.5972364 magnetization      -0.5857714

 Broyden mixing:
  rms(total) = 0.24033E+01    rms(broyden)= 0.24033E+01
  rms(prec ) = 0.39647E+01
  weight for this iteration     100.00

 eigenvalues of (default mixing * dielectric matrix)
  average eigenvalue GAMMA=   0.5377
  1.2194  0.8673  0.8673  0.7876  0.3109  0.2733  0.2733  0.1204  0.1204

 Free energy of the ion-electron system (eV)
  ---------------------------------------------------
  alpha Z        PSCENC =      1270.41419750
  Ewald energy   TEWEN  =    -22514.94584936
  -Hartree energ DENC   =     -9068.01936599
  -exchange      EXHF   =         0.00000000
  -V(xc)+E(xc)   XCENC  =       968.14040604
  PAW double counting   =     31116.78612438   -36394.84207721
  entropy T*S    EENTRO =        -0.02929320
  eigenvalues    EBANDS =     -2158.93446457
  atomic energy  EATOM  =     36691.11340606
  Solvation  Ediel_sol  =         0.00000000
  ---------------------------------------------------
  free energy    TOTEN  =       -90.31691636 eV

  energy without entropy =      -90.28762316  energy(sigma->0) =      -90.30226976


--------------------------------------------------------------------------------------------------------




--------------------------------------- Iteration      1(  15)  ---------------------------------------


    POTLOK:  cpu time      0.0108: real time      0.0122
    SETDIJ:  cpu time      3.3105: real time      3.3121
     EDDAV:  cpu time      2.3959: real time      2.3981
       DOS:  cpu time      0.0007: real time      0.0007
    CHARGE:  cpu time      0.2978: real time      0.2980
    MIXING:  cpu time      0.0055: real time      0.0055
    --------------------------------------------
      LOOP:  cpu time      6.0211: real time      6.0265

 eigenvalue-minimisations  :  4368
 total energy-change (2. order) :-0.2576655E+00  (-0.5435693E-01)
 number of electron     225.0000007 magnetization      -0.5155322
 augmentation part      119.9082794 magnetization      -0.5410000

 Broyden mixing:
  rms(total) = 0.12884E+01    rms(broyden)= 0.12882E+01
  rms(prec ) = 0.25319E+01
  weight for this iteration     100.00

 eigenvalues of (default mixing * dielectric matrix)
  average eigenvalue GAMMA=   0.5667
  1.6820  0.8573  0.8573  0.3331  0.6795  0.2748  0.2748  0.2949  0.2949  0.1185

 Free energy of the ion-electron system (eV)
  ---------------------------------------------------
  alpha Z        PSCENC =      1270.41419750
  Ewald energy   TEWEN  =    -22514.94584936
  -Hartree energ DENC   =     -9066.98401143
  -exchange      EXHF   =         0.00000000
  -V(xc)+E(xc)   XCENC  =       968.09673292
  PAW double counting   =     31158.22229924   -36436.38351219
  entropy T*S    EENTRO =        -0.03199762
  eigenvalues    EBANDS =     -2160.07584693
  atomic energy  EATOM  =     36691.11340606
  Solvation  Ediel_sol  =         0.00000000
  ---------------------------------------------------
  free energy    TOTEN  =       -90.57458182 eV

  energy without entropy =      -90.54258420  energy(sigma->0) =      -90.55858301


--------------------------------------------------------------------------------------------------------




--------------------------------------- Iteration      1(  16)  ---------------------------------------


    POTLOK:  cpu time      0.0110: real time      0.0120
    SETDIJ:  cpu time      3.3101: real time      3.3116
     EDDAV:  cpu time      2.6697: real time      2.6711
       DOS:  cpu time      0.0008: real time      0.0008
    CHARGE:  cpu time      0.2933: real time      0.2935
    MIXING:  cpu time      0.0054: real time      0.0054
    --------------------------------------------
      LOOP:  cpu time      6.2903: real time      6.2945

 eigenvalue-minimisations  :  5096
 total energy-change (2. order) : 0.2483217E+00  (-0.3646678E+00)
 number of electron     225.0000007 magnetization      -0.6152304
 augmentation part      118.7106963 magnetization      -0.4546347

 Broyden mixing:
  rms(total) = 0.82835E+00    rms(broyden)= 0.82831E+00
  rms(prec ) = 0.92138E+00
  weight for this iteration     100.00

 eigenvalues of (default mixing * dielectric matrix)
  average eigenvalue GAMMA=   0.6052
  1.7966  0.6947  0.6947  0.8223  0.7195  0.7195  0.3450  0.2736  0.2736  0.1924
  0.1258

 Free energy of the ion-electron system (eV)
  ---------------------------------------------------
  alpha Z        PSCENC =      1270.41419750
  Ewald energy   TEWEN  =    -22514.94584936
  -Hartree energ DENC   =     -9068.88104076
  -exchange      EXHF   =         0.00000000
  -V(xc)+E(xc)   XCENC  =       968.19781278
  PAW double counting   =     31279.23830503   -36562.42457443
  entropy T*S    EENTRO =        -0.01750839
  eigenvalues    EBANDS =     -2153.02100852
  atomic energy  EATOM  =     36691.11340606
  Solvation  Ediel_sol  =         0.00000000
  ---------------------------------------------------
  free energy    TOTEN  =       -90.32626009 eV

  energy without entropy =      -90.30875170  energy(sigma->0) =      -90.31750590


--------------------------------------------------------------------------------------------------------




--------------------------------------- Iteration      1(  17)  ---------------------------------------


    POTLOK:  cpu time      0.0108: real time      0.0120
    SETDIJ:  cpu time      3.3100: real time      3.3116
     EDDAV:  cpu time      2.7413: real time      2.7427
       DOS:  cpu time      0.0007: real time      0.0007
    CHARGE:  cpu time      0.2926: real time      0.2928
    MIXING:  cpu time      0.0070: real time      0.0070
    --------------------------------------------
      LOOP:  cpu time      6.3623: real time      6.3668

 eigenvalue-minimisations  :  5280
 total energy-change (2. order) :-0.2263486E-01  (-0.3539299E-01)
 number of electron     225.0000007 magnetization      -0.5247744
 augmentation part      118.1123523 magnetization      -0.3401042

 Broyden mixing:
  rms(total) = 0.49898E+00    rms(broyden)= 0.49898E+00
  rms(prec ) = 0.78105E+00
  weight for this iteration     100.00

 eigenvalues of (default mixing * dielectric matrix)
  average eigenvalue GAMMA=   0.6279
  1.9845  0.8165  0.8165  0.3447  0.8730  0.6510  0.5875  0.5875  0.2732  0.2732
  0.2019  0.1251

 Free energy of the ion-electron system (eV)
  ---------------------------------------------------
  alpha Z        PSCENC =      1270.41419750
  Ewald energy   TEWEN  =    -22514.94584936
  -Hartree energ DENC   =     -9072.79842006
  -exchange      EXHF   =         0.00000000
  -V(xc)+E(xc)   XCENC  =       968.34798883
  PAW double counting   =     31313.97924409   -36600.59277468
  entropy T*S    EENTRO =        -0.02694241
  eigenvalues    EBANDS =     -2145.83974491
  atomic energy  EATOM  =     36691.11340606
  Solvation  Ediel_sol  =         0.00000000
  ---------------------------------------------------
  free energy    TOTEN  =       -90.34889495 eV

  energy without entropy =      -90.32195254  energy(sigma->0) =      -90.33542375


--------------------------------------------------------------------------------------------------------




--------------------------------------- Iteration      1(  18)  ---------------------------------------


    POTLOK:  cpu time      0.0112: real time      0.0120
    SETDIJ:  cpu time      3.2950: real time      3.2959
     EDDAV:  cpu time      2.7679: real time      2.7692
       DOS:  cpu time      0.0008: real time      0.0008
    CHARGE:  cpu time      0.2929: real time      0.2930
    MIXING:  cpu time      0.0069: real time      0.0069
    --------------------------------------------
      LOOP:  cpu time      6.3748: real time      6.3779

 eigenvalue-minimisations  :  5384
 total energy-change (2. order) :-0.4327282E+00  (-0.2456842E-01)
 number of electron     225.0000007 magnetization      -0.5434232
 augmentation part      116.3571110 magnetization      -0.3095806

 Broyden mixing:
  rms(total) = 0.17650E+01    rms(broyden)= 0.17650E+01
  rms(prec ) = 0.35617E+01
  weight for this iteration     100.00

 eigenvalues of (default mixing * dielectric matrix)
  average eigenvalue GAMMA=   0.5907
  1.9800  0.8232  0.8232  0.9019  0.6499  0.6073  0.6073  0.3460  0.2732  0.2732
  0.2025  0.1250  0.0659

 Free energy of the ion-electron system (eV)
  ---------------------------------------------------
  alpha Z        PSCENC =      1270.41419750
  Ewald energy   TEWEN  =    -22514.94584936
  -Hartree energ DENC   =     -9074.11940430
  -exchange      EXHF   =         0.00000000
  -V(xc)+E(xc)   XCENC  =       968.39065642
  PAW double counting   =     31331.16599063   -36620.34804079
  entropy T*S    EENTRO =        -0.01866837
  eigenvalues    EBANDS =     -2142.43391095
  atomic energy  EATOM  =     36691.11340606
  Solvation  Ediel_sol  =         0.00000000
  ---------------------------------------------------
  free energy    TOTEN  =       -90.78162317 eV

  energy without entropy =      -90.76295479  energy(sigma->0) =      -90.77228898


--------------------------------------------------------------------------------------------------------




--------------------------------------- Iteration      1(  19)  ---------------------------------------


    POTLOK:  cpu time      0.0113: real time      0.0117
    SETDIJ:  cpu time      3.3010: real time      3.3021
     EDDAV:  cpu time      2.4733: real time      2.4752
       DOS:  cpu time      0.0007: real time      0.0007
    CHARGE:  cpu time      0.2920: real time      0.2921
    MIXING:  cpu time      0.0062: real time      0.0062
    --------------------------------------------
      LOOP:  cpu time      6.0845: real time      6.0881

 eigenvalue-minimisations  :  4560
 total energy-change (2. order) :-0.3589499E+00  (-0.1189455E-01)
 number of electron     225.0000007 magnetization      -0.5481480
 augmentation part      115.6103711 magnetization      -0.3664268

 Broyden mixing:
  rms(total) = 0.24069E+01    rms(broyden)= 0.24069E+01
  rms(prec ) = 0.47915E+01
  weight for this iteration     100.00

 eigenvalues of (default mixing * dielectric matrix)
  average eigenvalue GAMMA=   0.5736
  1.9769  0.8562  0.8562  0.8626  0.6351  0.6351  0.6529  0.3528  0.2733  0.2733
  0.2256  0.1997  0.1256  0.1050

 Free energy of the ion-electron system (eV)
  ---------------------------------------------------
  alpha Z        PSCENC =      1270.41419750
  Ewald energy   TEWEN  =    -22514.94584936
  -Hartree energ DENC   =     -9074.31976317
  -exchange      EXHF   =         0.00000000
  -V(xc)+E(xc)   XCENC  =       968.40183717
  PAW double counting   =     31332.33081796   -36622.61017918
  entropy T*S    EENTRO =        -0.01141484
  eigenvalues    EBANDS =     -2141.51362525
  atomic energy  EATOM  =     36691.11340606
  Solvation  Ediel_sol  =         0.00000000
  ---------------------------------------------------
  free energy    TOTEN  =       -91.14057311 eV

  energy without entropy =      -91.12915827  energy(sigma->0) =      -91.13486569


--------------------------------------------------------------------------------------------------------




--------------------------------------- Iteration      1(  20)  ---------------------------------------


    POTLOK:  cpu time      0.0106: real time      0.0117
    SETDIJ:  cpu time      3.3224: real time      3.3244
     EDDAV:  cpu time      2.2599: real time      2.2614
       DOS:  cpu time      0.0007: real time      0.0007
    CHARGE:  cpu time      0.2925: real time      0.2926
    MIXING:  cpu time      0.0061: real time      0.0061
    --------------------------------------------
      LOOP:  cpu time      5.8922: real time      5.8970

 eigenvalue-minimisations  :  4000
 total energy-change (2. order) :-0.2230398E-01  (-0.4256136E-02)
 number of electron     225.0000007 magnetization      -0.5307213
 augmentation part      115.2953282 magnetization      -0.4333272

 Broyden mixing:
  rms(total) = 0.26465E+01    rms(broyden)= 0.26465E+01
  rms(prec ) = 0.52871E+01
  weight for this iteration     100.00

 eigenvalues of (default mixing * dielectric matrix)
  average eigenvalue GAMMA=   0.5526
  1.9758  0.8668  0.8668  0.8695  0.6535  0.6282  0.6282  0.3630  0.2847  0.2733
  0.2733  0.2023  0.1249  0.1393  0.1393

 Free energy of the ion-electron system (eV)
  ---------------------------------------------------
  alpha Z        PSCENC =      1270.41419750
  Ewald energy   TEWEN  =    -22514.94584936
  -Hartree energ DENC   =     -9074.28213442
  -exchange      EXHF   =         0.00000000
  -V(xc)+E(xc)   XCENC  =       968.39976259
  PAW double counting   =     31337.24712167   -36628.00158113
  entropy T*S    EENTRO =        -0.01351492
  eigenvalues    EBANDS =     -2141.09428509
  atomic energy  EATOM  =     36691.11340606
  Solvation  Ediel_sol  =         0.00000000
  ---------------------------------------------------
  free energy    TOTEN  =       -91.16287709 eV

  energy without entropy =      -91.14936218  energy(sigma->0) =      -91.15611963


--------------------------------------------------------------------------------------------------------




--------------------------------------- Iteration      1(  21)  ---------------------------------------


    POTLOK:  cpu time      0.0110: real time      0.0118
    SETDIJ:  cpu time      3.3005: real time      3.3019
     EDDAV:  cpu time      2.2337: real time      2.2347
       DOS:  cpu time      0.0007: real time      0.0007
    CHARGE:  cpu time      0.2937: real time      0.2939
    MIXING:  cpu time      0.0066: real time      0.0066
    --------------------------------------------
[...]
  262        strnlr                                1.529130                            1   3
  263          rspher_all                            0.242142                          9   4
  264          phaser                                0.414382                         72   4
  265          rpro_isp                              0.869461                         72   4
  266            fftwav_mpi                            0.166929                     5184   5
  267              fftwav                                0.160467                   5184   6
  268                fft3d                                 0.035123                 5184   7
  269            rpromu_acc                            0.407706                     1296   5
  270          m_sumb_d                              0.000018                          1   4
  271        fft3d_mpi                             0.004528                           22   3
  272          fftbrc_mpi                            0.003732                         22   4
  273            fftbas_plan_mpi                       0.003720                       22   5
  274              map_forward                           0.001219                     20   6
  275                map_gather                            0.000252                   10   7
  276                m_alltoallv_z                         0.000140                   10   7
  277                map_scatter                           0.000653                   10   7
  278              map_backward                          0.001857                     24   6
  279                map_gather                            0.000327                   12   7
  280                m_alltoallv_z                         0.000140                   12   7
  281                map_scatter                           0.001184                   12   7
  282        m_sumb_d                              0.000030                            5   3
  283        forhar                                0.003037                            2   3
  284          m_sumb_d                              0.000057                          2   4
  285        strehar                               0.002137                            1   3
  286          m_sumb_d                              0.000015                          1   4
  287        chggra                                0.000875                            1   3
  288          fft3d_mpi                             0.000529                          3   4
  289            fftbrc_mpi                            0.000417                        3   5
  290              fftbas_plan_mpi                       0.000416                      3   6
  291                map_forward                           0.000220                    4   7
  292                  map_gather                            0.000051                  2   8
  293                  m_alltoallv_z                         0.000028                  2   8
  294                  map_scatter                           0.000105                  2   8
  295                map_backward                          0.000109                    2   7
  296                  map_gather                            0.000027                  1   8
  297                  m_alltoallv_z                         0.000013                  1   8
  298                  map_scatter                           0.000052                  1   8
  299          m_sumb_d                              0.000009                          2   4
  300          pothar                                0.000083                          1   4
  301            m_sumb_d                              0.000005                        1   5
  302        brmix                                 0.011931                            1   3
  303          m_sumb_d                              0.000050                          6   4
  304          brpre                                 0.000047                          2   4
  305          setg0                                 0.001540                          1   4
  306          broyd                                 0.008502                          1   4
  307            m_sumb_d                              0.000567                       49   5
  308            brget                                 0.001770                      219   5
  309            brsav                                 0.000580                       47   5
  310        m_bcast_d                             0.000040                            2   3
  311      potlok                                0.049145                              2   2
  312        fft3d_mpi                             0.031623                           36   3
  313          fftbrc_mpi                            0.027195                         36   4
  314            fftbas_plan_mpi                       0.027183                       36   5
  315              map_forward                           0.007964                     40   6
  316                map_gather                            0.002425                   24   7
  317                m_alltoallv_z                         0.003073                   24   7
  318                map_scatter                           0.002232                   24   7
  319              map_backward                          0.006805                     32   6
  320                map_gather                            0.002255                   16   7
  321                m_alltoallv_z                         0.002410                   16   7
  322                map_scatter                           0.001930                   16   7
  323              dfftw_execute                         0.010602                     30   6
  324        m_sumb_d                              0.000030                            5   3
  325        pothar                                0.002095                            2   3
  326          m_sumb_d                              0.000138                          2   4
  327        m_bcast_d                             0.003569                            4   3
  328      potlok_metagga                        0.000001                              1   2
  329      set_dd_magatom                        0.000005                              1   2
  330      set_dd_paw                            3.113892                              1   2
  331        m_sumb_d                              0.936184                            7   3
  332      augmentation_charge                   0.200324                              1   2
  333        fft3d_mpi                             0.074821                            2   3
  334          fftbrc_mpi                            0.066811                          2   4
  335            fftbas_plan_mpi                       0.066808                        2   5
  336              dfftw_execute                         0.040375                      6   6
  337              map_backward                          0.026189                      4   6
  338                map_gather                            0.008574                    2   7
  339                m_alltoallv_z                         0.009844                    2   7
  340                map_scatter                           0.007760                    2   7
  341      fftwav_mpi                            2.254864                           1728   2
  342        fftwav                                2.252708                         1728   3
  343          fft3d                                 2.069831                       1728   4
  344      densta                                0.002789                              1   2
  345        m_sumb_d                              0.001073                           38   3
 
 Flat profile
 ============
 
             routine name                   CPU           calls
 ---------------------------------------------------------------
 set_dd_paw                            251.738788         115
 m_sumb_d                              143.708727      304453
 raccmu_                                54.695428       96084
 eddav                                  51.383494         117
 lapack                                 39.437415       96084
 redis_pw                               24.624534      512888
 total_time                             16.788445           1
 setdij_                                16.675802         141
 augmentation_charge                    14.403272         114
 dfftw_execute                          12.631273        3192
 init_acc                               12.204345           1
 phaser                                 11.171106        1976
 m_alltoall_d                           10.003173     1415448
 eccp                                    6.953318       67392
 fft3d                                   6.287211      570727
 redis_proj                              4.461613      637680
 fftwav                                  4.059795      378559
 orth1                                   3.819284      288332
 m_alltoallv_z                           3.246573        4529
 hamiltmu                                2.953719       96084
 soft_charge                             2.849337         113
 racc0mu_acc                             2.844813       96084
 w1_copy                                 2.806316      576504
 overl                                   2.646355      316960
 setup_precond                           2.459017       67392
 acc_init_cublas                         2.446628           1
 rpromu_acc                              2.389474       64260
 m_bcast_z                               2.236353       98388
 map_scatter                             2.082776        4529
 fft3d_mpi                               2.073627      196221
 map_gather                              2.032310        4529
 ggemm                                   1.853530      129780
 pw_charge                               1.791818       52399
 set_charge                              1.723902         113
 m_bcast_d                               1.566877      192403
 overl_mu                                1.498833       96084
 depsum                                  1.048374         113
 newband                                 0.949671       97956
 vhamil                                  0.890146      192168
 kinhamil                                0.861053      192168
 fftext_mpi                              0.831535      192168
 acc_init_cusolver                       0.807178           1
 apply_precond                           0.685802      124776
 potlok                                  0.635384         115
 broyd                                   0.500705         113
 fftwav_mpi                              0.497318      378559
 rpro_isp                                0.408078         104
 rspher_all                              0.359553          14
 brmix                                   0.302171         113
 elmin                                   0.259454           1
 fftbas_plan_mpi                         0.230275        4053
 setg0                                   0.173943         115
 brget                                   0.170246       21864
 acc_cufft_makeplan                      0.160590          19
 sphpro_fast                             0.095865           2
 lincom                                  0.068335        1888
 w1_projall                              0.066571       62388
 proall                                  0.062009           1
 densta                                  0.051657         118
 brsav                                   0.045504        6068
 map_forward                             0.026993        3840
 map_backward                            0.026074        4266
 truncate_high_frequency_w1              0.021793      259560
 orthch                                  0.019040           1
 choleski                                0.017076          16
 force_and_stress                        0.016669           1
 fft_gq                                  0.013836         113
 stufak                                  0.012530           1
 pothar                                  0.011649         116
 inisym                                  0.005221           1
 brpre                                   0.004805         226
 strnlr                                  0.003127           1
 forhar                                  0.002980           2
 strelo                                  0.002709           1
 fftbrc_mpi                              0.002459        4053
 strehar                                 0.002122           1
 forloc                                  0.001550           1
 fornlr                                  0.001077           1
 strkin                                  0.001007           1
 set_dd_magatom                          0.000526         115
 vectorpot                               0.000478         114
 rsp                                     0.000469           1
 fewald                                  0.000341           1
 brgrid                                  0.000281           1
 chggra                                  0.000254           1
 fordep                                  0.000115           1
 posmap                                  0.000096           2
 crpa_reader                             0.000027           1
 rcp                                     0.000027           1
 potlok_metagga                          0.000013         114
 acc_cufft_makeplans                     0.000010           3
 rotate_active_occupied_orbital          0.000000           1
 redis_pw_over_bands                     0.000000           1
 ---------------------------------------------------------------
  summed up times     736.9060509204865     
 
 Accumulative profile
 ====================
 
             routine name                   CPU           calls
 ---------------------------------------------------------------
 total_time                            736.906051           1
 elmin                                 686.350167           1
 set_dd_paw                            357.549443         115
 eddav                                 275.953640         117
 m_sumb_d                              143.708727      304453
 hamiltmu                               66.013915       96084
 raccmu_                                59.039074       96084
 lapack                                 39.437415       96084
 set_charge                             33.163732         113
 redis_pw                               29.568849      512888
 setdij_                                29.040186         141
 fft3d_mpi                              23.732358      196221
 augmentation_charge                    23.134785         114
 fftbrc_mpi                             20.278733        4053
 fftbas_plan_mpi                        20.276274        4053
 newband                                15.818620       97956
 dfftw_execute                          12.631273        3192
 init_acc                               12.204345           1
 phaser                                 11.171106        1976
 force_and_stress                       10.834113           1
 m_alltoall_d                           10.003173     1415448
 redis_proj                              9.520471      637680
 fftwav_mpi                              9.464326      378559
 fftwav                                  8.967008      378559
 soft_charge                             7.089359         113
 eccp                                    6.953318       67392
 fft3d                                   6.287211      570727
 map_backward                            4.123383        4266
 orth1                                   3.819284      288332
 map_forward                             3.291343        3840
 m_alltoallv_z                           3.246573        4529
 kinhamil                                3.130975      192168
 racc0mu_acc                             2.844813       96084
 w1_copy                                 2.806316      576504
 overl                                   2.646355      316960
 setup_precond                           2.459017       67392
 acc_init_cublas                         2.446628           1
 rpromu_acc                              2.389474       64260
 fftext_mpi                              2.269922      192168
 m_bcast_z                               2.236353       98388
 map_scatter                             2.082776        4529
 map_gather                              2.032310        4529
 w1_projall                              1.907760       62388
 ggemm                                   1.853530      129780
 pw_charge                               1.791818       52399
 m_bcast_d                               1.566877      192403
 strnlr                                  1.529130           1
 overl_mu                                1.498833       96084
 potlok                                  1.371873         115
 brmix                                   1.274698         113
 fordep                                  1.238032           1
 rpro_isp                                1.188243         104
 depsum                                  1.104745         113
 vhamil                                  0.890146      192168
 acc_init_cusolver                       0.807178           1
 broyd                                   0.783699         113
 apply_precond                           0.685802      124776
 fornlr                                  0.509574           1
 rspher_all                              0.359553          14
 fft_gq                                  0.358164         113
 orthch                                  0.335224           1
 setg0                                   0.173943         115
 brget                                   0.170246       21864
 acc_cufft_makeplans                     0.160600           3
 acc_cufft_makeplan                      0.160590          19
 proall                                  0.138475           1
 sphpro_fast                             0.099543           2
 densta                                  0.076235         118
 lincom                                  0.068335        1888
 brsav                                   0.045504        6068
 truncate_high_frequency_w1              0.021793      259560
 choleski                                0.017076          16
 pothar                                  0.012925         116
 stufak                                  0.012530           1
 inisym                                  0.005317           1
 brpre                                   0.004805         226
 forhar                                  0.003037           2
 strelo                                  0.002781           1
 forloc                                  0.002672           1
 strehar                                 0.002137           1
 strkin                                  0.001017           1
 fewald                                  0.000958           1
 chggra                                  0.000875           1
 set_dd_magatom                          0.000526         115
 vectorpot                               0.000478         114
 rsp                                     0.000469           1
 brgrid                                  0.000281           1
 posmap                                  0.000096           2
 crpa_reader                             0.000027           1
 rcp                                     0.000027           1
 potlok_metagga                          0.000013         114
 rotate_active_occupied_orbital          0.000000           1
 redis_pw_over_bands                     0.000000           1
 ---------------------------------------------------------------
 
Profiling took   1.207438  0.593205  0.003417  0.003316 seconds
Profiling took   0.769179 seconds
