 vasp.6.3.2 27Jun22 (build Jul  3 2023 11:46:21) complex                         
 executed on    LinuxNV_CrayMPICH date 2024.04.22  03:04:37
 running on    4 total cores
 distrk:  each k-point on    4 cores,    1 groups
 distr:  one band on NCORE=   1 cores,    4 groups


--------------------------------------------------------------------------------------------------------


 INCAR:
   ADDGRID = True
   ALGO = Normal
   EDIFF = 0.0012
   ENCUT = 520.0
   IBRION = -1
   ICHARG = 0
   ISIF = 3
   ISMEAR = -5
   ISPIN = 2
   ISYM = 0
   LAECHG = True
   LASPH = True
   LCHARG = True
   LORBIT = 11
   LREAL = Auto
   LVHAR = True
   LWAVE = False
   MAGMOM = 4*7.0 2*0.015 2*0.014 8*0.001 4*0.003 4*0.0
   NELM = 1000
   NSW = 0
   PREC = Accurate
   SIGMA = 0.05

 POTCAR:    PAW_PBE Eu 23Dec2003                  
 POTCAR:    PAW_PBE Dy_3 06Sep2000                
 POTCAR:    PAW_PBE Cu_pv 06Sep2000               
 POTCAR:    PAW_PBE S 06Sep2000                   
 POTCAR:    PAW_PBE Eu 23Dec2003                  
   SHA256 =  ed303d27e7c5191953f9b15539336e6f36d9037c1d2e92e80c13d733697cb93d Eu/POTCAR             
   COPYR  = (c) Copyright 23Dec2003 Georg Kresse                                                    
   COPYR  = This file is part of the software VASP. Any use, copying, and all other rights are regul
   COPYR  = If you do not have a valid VASP license, you may not use, copy or distribute this file. 
   VRHFIN =Eu : [core=Kr4d]                                                                         
   LEXCH  = PE                                                                                      
   EATOM  =  2619.8085 eV,  192.5505 Ry                                                             
                                                                                                    
   TITEL  = PAW_PBE Eu 23Dec2003                                                                    
   LULTRA =        F    use ultrasoft PP ?                                                          
   IUNSCR =        1    unscreen: 0-lin 1-nonlin 2-no                                               
   RPACOR =    2.300    partial core radius                                                         
   POMASS =  151.965; ZVAL   =   17.000    mass and valenz                                          
   RCORE  =    2.800    outmost cutoff radius                                                       
   RWIGS  =    2.800; RWIGS  =    1.482    wigner-seitz radius (au A)                               
   ENMAX  =  249.668; ENMIN  =  187.251 eV                                                          
   RCLOC  =    2.308    cutoff for local pot                                                        
   LCOR   =        T    correct aug charges                                                         
   LPAW   =        T    paw PP                                                                      
   EAUG   =  549.628                                                                                
   DEXC   =    0.000                                                                                
   RMAX   =    2.870    core radius for proj-oper                                                   
   RAUG   =    1.300    factor for augmentation sphere                                              
   RDEP   =    2.887    radius for radial grids                                                     
   RDEPT  =    2.221    core radius for aug-charge                                                  
                                                                                                    
   Atomic configuration                                                                             
   14 entries                                                                                       
     n  l   j            E        occ.                                                              
     1  0  0.50    -48354.7667   2.0000                                                             
     2  0  0.50     -7939.6472   2.0000                                                             
     2  1  1.50     -7072.6637   6.0000                                                             
     3  0  0.50     -1747.1875   2.0000                                                             
     3  1  1.50     -1477.5221   6.0000                                                             
     3  2  2.50     -1117.4686  10.0000                                                             
     4  0  0.50      -346.8682   2.0000                                                             
     4  1  1.50      -258.1962   6.0000                                                             
     4  2  2.50      -134.7724  10.0000                                                             
     5  0  0.50       -44.6510   2.0000                                                             
     6  0  0.50        -3.6227   2.0000                                                             
     5  1  1.50       -23.7639   6.0000                                                             
     5  2  2.50        -1.3130   0.0000                                                             
     4  3  2.50        -2.7310   7.0000                                                             
   Description                                                                                      
     l       E           TYP  RCUT    TYP  RCUT                                                     
     0    -44.6510453     23  2.400                                                                 
     0     -3.6226685     23  2.400                                                                 
     1    -23.7638687     23  2.400                                                                 
     1     27.2116520     23  2.400                                                                 
     2     -1.3129622     23  2.500                                                                 
     2     13.6058260     23  2.500                                                                 
     3     -2.7309948     23  2.800                                                                 
     3     -3.4014565     23  2.800                                                                 
  local pseudopotential read in
  partial core-charges read in
  partial kinetic energy density read in
  atomic valenz-charges read in
  non local Contribution for L=            0  read in
    real space projection operators read in
  non local Contribution for L=            0  read in
    real space projection operators read in
  non local Contribution for L=            1  read in
    real space projection operators read in
  non local Contribution for L=            1  read in
    real space projection operators read in
  non local Contribution for L=            2  read in
    real space projection operators read in
  non local Contribution for L=            2  read in
    real space projection operators read in
  non local Contribution for L=            3  read in
    real space projection operators read in
  non local Contribution for L=            3  read in
    real space projection operators read in
    PAW grid and wavefunctions read in
 
   number of l-projection  operators is LMAX  =            8
   number of lm-projection operators is LMMAX =           32
 
 POTCAR:    PAW_PBE Dy_3 06Sep2000                
   SHA256 =  d1221e5cb31116b1c3a1ed9166184784c35b5d689d241db1502ab87fd3612669 Dy_3/POTCAR           
   COPYR  = (c) Copyright 06Sep2000 Georg Kresse                                                    
   COPYR  = This file is part of the software VASP. Any use, copying, and all other rights are regul
   COPYR  = If you do not have a valid VASP license, you may not use, copy or distribute this file. 
   VRHFIN =Dy : [core=Xe4]                                                                          
   LEXCH  = PE                                                                                      
   EATOM  =   652.0313 eV,   47.9229 Ry                                                             
                                                                                                    
   TITEL  = PAW_PBE Dy_3 06Sep2000                                                                  
   LULTRA =        F    use ultrasoft PP ?                                                          
   IUNSCR =        1    unscreen: 0-lin 1-nonlin 2-no                                               
   RPACOR =    2.300    partial core radius                                                         
   POMASS =  162.500; ZVAL   =    9.000    mass and valenz                                          
   RCORE  =    3.000    outmost cutoff radius                                                       
   RWIGS  =    3.000; RWIGS  =    1.588    wigner-seitz radius (au A)                               
   ENMAX  =  155.713; ENMIN  =  116.785 eV                                                          
   RCLOC  =    2.304    cutoff for local pot                                                        
   LCOR   =        T    correct aug charges                                                         
   LPAW   =        T    paw PP                                                                      
   EAUG   =  276.179                                                                                
   DEXC   =    0.000                                                                                
   RMAX   =    3.055    core radius for proj-oper                                                   
   RAUG   =    1.300    factor for augmentation sphere                                              
   RDEP   =    3.148    radius for radial grids                                                     
   RDEPT  =    2.472    core radius for aug-charge                                                  
                                                                                                    
   Atomic configuration                                                                             
   14 entries                                                                                       
     n  l   j            E        occ.                                                              
     1  0  0.50    -53649.4747   2.0000                                                             
     2  0  0.50     -8938.7981   2.0000                                                             
     2  1  1.50     -7930.4079   6.0000                                                             
     3  0  0.50     -1995.9475   2.0000                                                             
     3  1  1.50     -1686.5617   6.0000                                                             
     3  2  2.50     -1289.2503  10.0000                                                             
     4  0  0.50      -400.6990   2.0000                                                             
     4  1  1.50      -298.7501   6.0000                                                             
     4  2  2.50      -160.0144  10.0000                                                             
     4  3  2.50        -9.2063   9.0000                                                             
     5  0  0.50       -52.8118   2.0000                                                             
     6  0  0.50        -4.2641   2.0000                                                             
     5  1  1.50       -28.4993   6.0000                                                             
     5  2  2.50        -2.3128   1.0000                                                             
   Description                                                                                      
     l       E           TYP  RCUT    TYP  RCUT                                                     
     0     -4.2641173     23  3.000                                                                 
     0     10.8846608     23  3.000                                                                 
     1    -28.4992799     23  3.000                                                                 
     1    -29.8598625     23  3.000                                                                 
     2     -2.3128182     23  3.000                                                                 
     2      0.4721243     23  3.000                                                                 
  local pseudopotential read in
  partial core-charges read in
  partial kinetic energy density read in
  atomic valenz-charges read in
  non local Contribution for L=            0  read in
    real space projection operators read in
  non local Contribution for L=            0  read in
    real space projection operators read in
  non local Contribution for L=            1  read in
    real space projection operators read in
  non local Contribution for L=            1  read in
    real space projection operators read in
  non local Contribution for L=            2  read in
    real space projection operators read in
  non local Contribution for L=            2  read in
    real space projection operators read in
    PAW grid and wavefunctions read in
 
   number of l-projection  operators is LMAX  =            6
   number of lm-projection operators is LMMAX =           18
 
 POTCAR:    PAW_PBE Cu_pv 06Sep2000               
   SHA256 =  cb7b504e2ea725fe1f25c85a9ac77d4012ce94cd394135b722c4e25ec297f1cb Cu_pv/POTCAR          
   COPYR  = (c) Copyright 06Sep2000 Georg Kresse                                                    
   COPYR  = This file is part of the software VASP. Any use, copying, and all other rights are regul
   COPYR  = If you do not have a valid VASP license, you may not use, copy or distribute this file. 
   VRHFIN =Cu: d10 p1                                                                               
   LEXCH  = PE                                                                                      
   EATOM  =  4120.1201 eV,  302.8203 Ry                                                             
                                                                                                    
   TITEL  = PAW_PBE Cu_pv 06Sep2000                                                                 
   LULTRA =        F    use ultrasoft PP ?                                                          
   IUNSCR =        1    unscreen: 0-lin 1-nonlin 2-no                                               
   RPACOR =    1.500    partial core radius                                                         
   POMASS =   63.546; ZVAL   =   17.000    mass and valenz                                          
   RCORE  =    2.000    outmost cutoff radius                                                       
   RWIGS  =    2.000; RWIGS  =    1.058    wigner-seitz radius (au A)                               
   ENMAX  =  368.648; ENMIN  =  276.486 eV                                                          
   RCLOC  =    1.304    cutoff for local pot                                                        
   LCOR   =        T    correct aug charges                                                         
   LPAW   =        T    paw PP                                                                      
   EAUG   =  758.233                                                                                
   DEXC   =    0.000                                                                                
   RMAX   =    2.046    core radius for proj-oper                                                   
   RAUG   =    1.300    factor for augmentation sphere                                              
   RDEP   =    2.025    radius for radial grids                                                     
   RDEPT  =    1.558    core radius for aug-charge                                                  
                                                                                                    
   Atomic configuration                                                                             
    8 entries                                                                                       
     n  l   j            E        occ.                                                              
     1  0  0.50     -8850.2467   2.0000                                                             
     2  0  0.50     -1062.3498   2.0000                                                             
     2  1  1.50      -916.8226   6.0000                                                             
     3  0  0.50      -114.6929   2.0000                                                             
     3  1  1.50       -72.1325   6.0000                                                             
     3  2  2.50        -5.0394  10.0000                                                             
     4  0  0.50        -4.6097   1.0000                                                             
     4  3  2.50        -1.3606   0.0000                                                             
   Description                                                                                      
     l       E           TYP  RCUT    TYP  RCUT                                                     
     1    -72.1324777     23  1.700                                                                 
     1     -1.3605826     23  1.700                                                                 
     2     -5.0393776     23  2.000                                                                 
     2     -6.3999602     23  2.000                                                                 
     0     -4.6097062     23  1.800                                                                 
     0     14.1620818     23  1.800                                                                 
  local pseudopotential read in
  partial core-charges read in
  partial kinetic energy density read in
  atomic valenz-charges read in
  non local Contribution for L=            1  read in
    real space projection operators read in
  non local Contribution for L=            1  read in
    real space projection operators read in
  non local Contribution for L=            2  read in
    real space projection operators read in
  non local Contribution for L=            2  read in
    real space projection operators read in
  non local Contribution for L=            0  read in
    real space projection operators read in
  non local Contribution for L=            0  read in
    real space projection operators read in
    PAW grid and wavefunctions read in
 
   number of l-projection  operators is LMAX  =            6
   number of lm-projection operators is LMMAX =           18
 
 POTCAR:    PAW_PBE S 06Sep2000                   
   SHA256 =  0fc7481fb0695f01bdc6462160264c5c84044ae9ec85a907d398b887a2bc3132 S/POTCAR              
   COPYR  = (c) Copyright 06Sep2000 Georg Kresse                                                    
   COPYR  = This file is part of the software VASP. Any use, copying, and all other rights are regul
   COPYR  = If you do not have a valid VASP license, you may not use, copy or distribute this file. 
   VRHFIN =S : s2p4                                                                                 
   LEXCH  = PE                                                                                      
   EATOM  =   276.8230 eV,   20.3459 Ry                                                             
                                                                                                    
   TITEL  = PAW_PBE S 06Sep2000                                                                     
   LULTRA =        F    use ultrasoft PP ?                                                          
   IUNSCR =        1    unscreen: 0-lin 1-nonlin 2-no                                               
   RPACOR =    1.500    partial core radius                                                         
   POMASS =   32.066; ZVAL   =    6.000    mass and valenz                                          
   RCORE  =    1.900    outmost cutoff radius                                                       
   RWIGS  =    2.200; RWIGS  =    1.164    wigner-seitz radius (au A)                               
   ENMAX  =  258.689; ENMIN  =  194.016 eV                                                          
   ICORE  =        2    local potential                                                             
   LCOR   =        T    correct aug charges                                                         
   LPAW   =        T    paw PP                                                                      
   EAUG   =  335.092                                                                                
   DEXC   =    0.000                                                                                
   RMAX   =    1.942    core radius for proj-oper                                                   
   RAUG   =    1.300    factor for augmentation sphere                                              
   RDEP   =    1.954    radius for radial grids                                                     
   RDEPT  =    1.744    core radius for aug-charge                                                  
                                                                                                    
   Atomic configuration                                                                             
    6 entries                                                                                       
     n  l   j            E        occ.                                                              
     1  0  0.50     -2405.8406   2.0000                                                             
     2  0  0.50      -211.7007   2.0000                                                             
     2  1  1.50      -156.4958   6.0000                                                             
     3  0  0.50       -17.2562   2.0000                                                             
     3  1  0.50        -7.0085   4.0000                                                             
     3  2  1.50        -6.8029   0.0000                                                             
   Description                                                                                      
     l       E           TYP  RCUT    TYP  RCUT                                                     
     0    -17.2561641     23  1.900                                                                 
     0    -15.8743224     23  1.900                                                                 
     1     -7.0085400     23  1.900                                                                 
     1     -2.7779785     23  1.900                                                                 
     2     -6.8029130     23  1.900                                                                 
  local pseudopotential read in
  partial core-charges read in
  partial kinetic energy density read in
  atomic valenz-charges read in
  non local Contribution for L=            0  read in
    real space projection operators read in
  non local Contribution for L=            0  read in
    real space projection operators read in
  non local Contribution for L=            1  read in
    real space projection operators read in
  non local Contribution for L=            1  read in
    real space projection operators read in
    PAW grid and wavefunctions read in
 
   number of l-projection  operators is LMAX  =            4
   number of lm-projection operators is LMMAX =            8
 
 Optimization of the real space projectors (new method)

 maximal supplied QI-value         = 13.42
 optimisation between [QCUT,QGAM] = [ 11.67, 23.35] = [ 38.16,152.62] Ry 
 Optimized for a Real-space Cutoff    1.63 Angstroem

   l    n(q)    QCUT    max X(q) W(low)/X(q) W(high)/X(q)  e(spline) 
   0     11    11.673    10.400    0.14E-04    0.18E-05    0.24E-07
   0     11    11.673    10.768    0.21E-04    0.32E-05    0.49E-07
   1     11    11.673     4.094    0.40E-05    0.13E-04    0.93E-07
   1     11    11.673     4.009    0.11E-04    0.46E-04    0.33E-06
   2     10    11.673    29.030    0.79E-04    0.60E-04    0.70E-06
   2     10    11.673    19.941    0.80E-04    0.60E-04    0.71E-06
   3     10    11.673    88.889    0.23E-03    0.29E-03    0.30E-06
   3     10    11.673    76.102    0.23E-03    0.30E-03    0.30E-06
 Optimization of the real space projectors (new method)

 maximal supplied QI-value         = 12.47
 optimisation between [QCUT,QGAM] = [ 11.60, 23.32] = [ 37.68,152.32] Ry 
 Optimized for a Real-space Cutoff    1.89 Angstroem

   l    n(q)    QCUT    max X(q) W(low)/X(q) W(high)/X(q)  e(spline) 
   0     13    11.599    57.302    0.37E-04    0.16E-05    0.57E-06
   0     13    11.599    27.765    0.24E-04    0.17E-05    0.49E-06
   1     13    11.599    41.596    0.37E-05    0.11E-04    0.10E-05
   1     13    11.599    42.475    0.39E-05    0.11E-04    0.11E-05
   2     12    11.599   121.897    0.82E-04    0.72E-04    0.20E-05
   2     12    11.599    97.181    0.82E-04    0.72E-04    0.20E-05
 Optimization of the real space projectors (new method)

 maximal supplied QI-value         = 18.90
 optimisation between [QCUT,QGAM] = [ 11.53, 23.24] = [ 37.21,151.29] Ry 
 Optimized for a Real-space Cutoff    1.36 Angstroem

   l    n(q)    QCUT    max X(q) W(low)/X(q) W(high)/X(q)  e(spline) 
   1      9    11.527     3.172    0.21E-04    0.38E-04    0.11E-06
   1      9    11.527     4.083    0.67E-04    0.79E-04    0.20E-06
   2      9    11.527    65.342    0.13E-03    0.28E-03    0.26E-06
   2      9    11.527    61.381    0.13E-03    0.29E-03    0.26E-06
   0      9    11.527    65.742    0.32E-04    0.21E-04    0.72E-07
   0      9    11.527    30.431    0.28E-04    0.19E-04    0.65E-07
 Optimization of the real space projectors (new method)

 maximal supplied QI-value         = 19.84
 optimisation between [QCUT,QGAM] = [ 11.51, 23.22] = [ 37.09,150.92] Ry 
 Optimized for a Real-space Cutoff    1.21 Angstroem

   l    n(q)    QCUT    max X(q) W(low)/X(q) W(high)/X(q)  e(spline) 
   0      8    11.508   187.594    0.96E-04    0.18E-03    0.54E-07
   0      8    11.508   164.243    0.96E-04    0.18E-03    0.54E-07
   1      8    11.508    67.533    0.18E-03    0.65E-04    0.94E-07
   1      8    11.508    50.729    0.18E-03    0.63E-04    0.92E-07
  PAW_PBE Eu 23Dec2003                  :
 energy of atom  1       EATOM=-2619.8085
 kinetic energy error for atom=    0.0015 (will be added to EATOM!!)
  PAW_PBE Dy_3 06Sep2000                :
 energy of atom  2       EATOM= -652.0313
 kinetic energy error for atom=    0.0002 (will be added to EATOM!!)
  PAW_PBE Cu_pv 06Sep2000               :
 energy of atom  3       EATOM=-4120.1201
 kinetic energy error for atom=    0.0541 (will be added to EATOM!!)
  PAW_PBE S 06Sep2000                   :
 energy of atom  4       EATOM= -276.8230
 kinetic energy error for atom=    0.0016 (will be added to EATOM!!)
 
 
 POSCAR: Eu4 Dy4 Cu4 S12
  positions in direct lattice
  No initial velocities read in
 exchange correlation table for  LEXCH =        8
   RHO(1)=    0.500       N(1)  =     2000
   RHO(2)=  100.500       N(2)  =     4000

 VTST: version 4.2, (08/11/21)

 CHAIN: initializing optimizer
 
 OPT: Using VASP Dynamics algorithm
 CHAIN: Read ICHAIN             0
 
 POSCAR: Eu4 Dy4 Cu4 S12
  positions in direct lattice
  No initial velocities read in
 


--------------------------------------------------------------------------------------------------------


 ion  position               nearest neighbor table
   1  0.750  0.727  0.500-  22 2.95  22 2.95  14 3.02  14 3.02  18 3.03  18 3.03
   2  0.250  0.273  0.500-  21 2.95  21 2.95  13 3.02  13 3.02  17 3.03  17 3.03
   3  0.750  0.227  0.000-  24 2.95  24 2.95  16 3.02  16 3.02  20 3.03  20 3.03
   4  0.250  0.773  1.000-  23 2.95  23 2.95  15 3.02  15 3.02  19 3.03  19 3.03
   5  0.750  0.486  0.757-  20 2.73  20 2.73  21 2.75  23 2.75  14 2.76  14 2.76
   6  0.250  0.514  0.243-  19 2.73  19 2.73  22 2.75  24 2.75  13 2.76  13 2.76
   7  0.750  0.986  0.743-  18 2.73  18 2.73  23 2.75  21 2.75  16 2.76  16 2.76
   8  0.250  0.014  0.257-  17 2.73  17 2.73  24 2.75  22 2.75  15 2.76  15 2.76
   9  0.750  0.263  0.277-  17 2.32  13 2.33  24 2.38  24 2.38
  10  0.250  0.737  0.723-  18 2.32  14 2.33  23 2.38  23 2.38
  11  0.750  0.763  0.223-  19 2.32  15 2.33  22 2.38  22 2.38
  12  0.250  0.237  0.777-  20 2.32  16 2.33  21 2.38  21 2.38
  13  0.750  0.446  0.385-   9 2.33   6 2.76   6 2.76   2 3.02   2 3.02
  14  0.250  0.554  0.615-  10 2.33   5 2.76   5 2.76   1 3.02   1 3.02
  15  0.750  0.946  0.115-  11 2.33   8 2.76   8 2.76   4 3.02   4 3.02
  16  0.250  0.054  0.885-  12 2.33   7 2.76   7 2.76   3 3.02   3 3.02
  17  0.750  0.089  0.393-   9 2.32   8 2.73   8 2.73   2 3.03   2 3.03
  18  0.250  0.911  0.607-  10 2.32   7 2.73   7 2.73   1 3.03   1 3.03
  19  0.750  0.589  0.107-  11 2.32   6 2.73   6 2.73   4 3.03   4 3.03
  20  0.250  0.411  0.893-  12 2.32   5 2.73   5 2.73   3 3.03   3 3.03
  21  0.750  0.239  0.671-  12 2.38  12 2.38   5 2.75   7 2.75   2 2.95   2 2.95
  22  0.250  0.761  0.329-  11 2.38  11 2.38   6 2.75   8 2.75   1 2.95   1 2.95
  23  0.750  0.739  0.829-  10 2.38  10 2.38   7 2.75   5 2.75   4 2.95   4 2.95
  24  0.250  0.261  0.171-   9 2.38   9 2.38   8 2.75   6 2.75   3 2.95   3 2.95
 

IMPORTANT INFORMATION: All symmetrisations will be switched off!
NOSYMM: (Re-)initialisation of all symmetry stuff for point group C_1.


----------------------------------------------------------------------------------------

                                     Primitive cell                                     

  volume of cell :     511.1959

  direct lattice vectors                    reciprocal lattice vectors
     3.903901000  0.000000000  0.000000000     0.256154037  0.000000000  0.000000000
     0.000000000 10.228071000  0.000000000     0.000000000  0.097770146  0.000000000
     0.000000000  0.000000000 12.802502000     0.000000000  0.000000000  0.078109732

  length of vectors
     3.903901000 10.228071000 12.802502000     0.256154037  0.097770146  0.078109732

  position of ions in fractional coordinates (direct lattice)
     0.750000000  0.727235000  0.499572000
     0.250000000  0.272765000  0.500428000
     0.750000000  0.227235000  0.000428000
     0.250000000  0.772765000  0.999572000
     0.750000000  0.485670000  0.757108000
     0.250000000  0.514330000  0.242892000
     0.750000000  0.985670000  0.742892000
     0.250000000  0.014330000  0.257108000
     0.750000000  0.262936000  0.276531000
     0.250000000  0.737064000  0.723469000
     0.750000000  0.762936000  0.223469000
     0.250000000  0.237064000  0.776531000
     0.750000000  0.445863000  0.385489000
     0.250000000  0.554137000  0.614511000
     0.750000000  0.945863000  0.114511000
     0.250000000  0.054137000  0.885489000
     0.750000000  0.089442000  0.393385000
     0.250000000  0.910558000  0.606615000
     0.750000000  0.589442000  0.106615000
     0.250000000  0.410558000  0.893385000
     0.750000000  0.239387000  0.670676000
     0.250000000  0.760613000  0.329324000
     0.750000000  0.739387000  0.829324000
     0.250000000  0.260613000  0.170676000

  ion indices of the primitive-cell ions
   primitive index   ion index
                 1           1
                 2           2
                 3           3
                 4           4
                 5           5
                 6           6
                 7           7
                 8           8
                 9           9
                10          10
                11          11
                12          12
                13          13
                14          14
                15          15
                16          16
                17          17
                18          18
                19          19
                20          20
                21          21
                22          22
                23          23
                24          24

----------------------------------------------------------------------------------------

 
 
 KPOINTS: Kpoints from vasprun.xml                

Automatic generation of k-mesh.
 Grid dimensions read from file:
 generate k-points for:    7    2    2

 Generating k-lattice:

  Cartesian coordinates                     Fractional coordinates (reciprocal lattice)
     0.036593434  0.000000000  0.000000000     0.142857143  0.000000000  0.000000000
     0.000000000  0.048885073  0.000000000     0.000000000  0.500000000  0.000000000
     0.000000000  0.000000000  0.039054866     0.000000000  0.000000000  0.500000000

  Length of vectors
     0.036593434  0.048885073  0.039054866

  Shift w.r.t. Gamma in fractional coordinates (k-lattice)
     0.000000000  0.000000000  0.000000000

 TETIRR: Found     84 inequivalent tetrahedra from      168
 
 Subroutine IBZKPT returns following result:
 ===========================================
 
 Found     16 irreducible k-points:
 
 Following reciprocal coordinates:
            Coordinates               Weight
  0.000000  0.000000  0.000000      1.000000
  0.142857  0.000000  0.000000      2.000000
  0.285714  0.000000  0.000000      2.000000
  0.428571  0.000000  0.000000      2.000000
  0.000000  0.500000  0.000000      1.000000
  0.142857  0.500000  0.000000      2.000000
  0.285714  0.500000  0.000000      2.000000
  0.428571  0.500000  0.000000      2.000000
  0.000000  0.000000  0.500000      1.000000
  0.142857  0.000000  0.500000      2.000000
  0.285714  0.000000  0.500000      2.000000
  0.428571  0.000000  0.500000      2.000000
  0.000000  0.500000  0.500000      1.000000
  0.142857  0.500000  0.500000      2.000000
  0.285714  0.500000  0.500000      2.000000
  0.428571  0.500000  0.500000      2.000000
 
 Following cartesian coordinates:
            Coordinates               Weight
  0.000000  0.000000  0.000000      1.000000
  0.036593  0.000000  0.000000      2.000000
  0.073187  0.000000  0.000000      2.000000
  0.109780  0.000000  0.000000      2.000000
  0.000000  0.048885  0.000000      1.000000
  0.036593  0.048885  0.000000      2.000000
  0.073187  0.048885  0.000000      2.000000
  0.109780  0.048885  0.000000      2.000000
  0.000000  0.000000  0.039055      1.000000
  0.036593  0.000000  0.039055      2.000000
  0.073187  0.000000  0.039055      2.000000
  0.109780  0.000000  0.039055      2.000000
  0.000000  0.048885  0.039055      1.000000
  0.036593  0.048885  0.039055      2.000000
  0.073187  0.048885  0.039055      2.000000
  0.109780  0.048885  0.039055      2.000000
 


--------------------------------------------------------------------------------------------------------




 Dimension of arrays:
   k-points           NKPTS =     16   k-points in BZ     NKDIM =     16   number of bands    NBANDS=    160
   number of dos      NEDOS =    301   number of ions     NIONS =     24
   non local maximal  LDIM  =      8   non local SUM 2l+1 LMDIM =     32
   total plane-waves  NPLWV = 230400
   max r-space proj   IRMAX =  12723   max aug-charges    IRDMAX= 323769
   dimension x,y,z NGX =    30 NGY =   80 NGZ =   96
   dimension x,y,z NGXF=    60 NGYF=  160 NGZF=  192
   support grid    NGXF=   120 NGYF=  320 NGZF=  384
   ions per type =               4   4   4  12
   NGX,Y,Z   is equivalent  to a cutoff of  12.78, 13.00, 12.47 a.u.
   NGXF,Y,Z  is equivalent  to a cutoff of  25.55, 26.01, 24.93 a.u.

 SYSTEM =  unknown system                          
 POSCAR =  Eu4 Dy4 Cu4 S12                         

 Startparameter for this run:
   NWRITE =      2    write-flag & timer
   PREC   = accura    normal or accurate (medium, high low for compatibility)
   ISTART =      0    job   : 0-new  1-cont  2-samecut
   ICHARG =      0    charge: 1-file 2-atom 10-const
   ISPIN  =      2    spin polarized calculation?
   LNONCOLLINEAR =      F non collinear calculations
   LSORBIT =      F    spin-orbit coupling
   INIWAV =      1    electr: 0-lowe 1-rand  2-diag
   LASPH  =      T    aspherical Exc in radial PAW
 Electronic Relaxation 1
   ENCUT  =  520.0 eV  38.22 Ry    6.18 a.u.   7.26 19.02 23.80*2*pi/ulx,y,z
   ENINI  =  520.0     initial cutoff
   ENAUG  =  758.2 eV  augmentation charge cutoff
   NELM   =   1000;   NELMIN=  2; NELMDL= -5     # of ELM steps 
   EDIFF  = 0.1E-02   stopping-criterion for ELM
   LREAL  =      T    real-space projection
   NLSPLINE    = F    spline interpolate recip. space projectors
   LCOMPAT=      F    compatible to vasp.4.4
   GGA_COMPAT  = T    GGA compatible to vasp.4.4-vasp.4.6
   LMAXPAW     = -100 max onsite density
   LMAXMIX     =    2 max onsite mixed and CHGCAR
   VOSKOWN=      0    Vosko Wilk Nusair interpolation
   ROPT   =   -0.00025  -0.00025  -0.00025  -0.00025
 Ionic relaxation
   EDIFFG = 0.1E-01   stopping-criterion for IOM
   NSW    =      0    number of steps for IOM
   NBLOCK =      1;   KBLOCK =      1    inner block; outer block 
   IBRION =     -1    ionic relax: 0-MD 1-quasi-New 2-CG
   NFREE  =      0    steps in history (QN), initial steepest desc. (CG)
   ISIF   =      3    stress and relaxation
   IWAVPR =     10    prediction:  0-non 1-charg 2-wave 3-comb
   ISYM   =      0    0-nonsym 1-usesym 2-fastsym
   LCORR  =      T    Harris-Foulkes like correction to forces

   POTIM  = 0.5000    time-step for ionic-motion
   TEIN   =    0.0    initial temperature
   TEBEG  =    0.0;   TEEND  =   0.0 temperature during run
   SMASS  =  -3.00    Nose mass-parameter (am)
   estimated Nose-frequenzy (Omega)   =  0.10E-29 period in steps = 0.13E+47 mass=  -0.348E-27a.u.
   SCALEE = 1.0000    scale energy and forces
   NPACO  =    256;   APACO  = 10.0  distance and # of slots for P.C.
   PSTRESS=    0.0 pullay stress

  Mass of Ions in am
   POMASS = 151.97162.50 63.55 32.07
  Ionic Valenz
   ZVAL   =  17.00  9.00 17.00  6.00
  Atomic Wigner-Seitz radii
   RWIGS  =  -1.00 -1.00 -1.00 -1.00
  virtual crystal weights 
   VCA    =   1.00  1.00  1.00  1.00
   NELECT =     244.0000    total number of electrons
   NUPDOWN=      -1.0000    fix difference up-down

 DOS related values:
   EMIN   =  10.00;   EMAX   =-10.00  energy-range for DOS
   EFERMI =   0.00
   ISMEAR =    -5;   SIGMA  =   0.05  broadening in eV -4-tet -1-fermi 0-gaus

 Electronic relaxation 2 (details)
   IALGO  =     38    algorithm
   LDIAG  =      T    sub-space diagonalisation (order eigenvalues)
   LSUBROT=      F    optimize rotation matrix (better conditioning)
   TURBO    =      0    0=normal 1=particle mesh
   IRESTART =      0    0=no restart 2=restart with 2 vectors
   NREBOOT  =      0    no. of reboots
   NMIN     =      0    reboot dimension
   EREF     =   0.00    reference energy to select bands
   IMIX   =      4    mixing-type and parameters
     AMIX     =   0.40;   BMIX     =  1.00
     AMIX_MAG =   1.60;   BMIX_MAG =  1.00
     AMIN     =   0.10
     WC   =   100.;   INIMIX=   1;  MIXPRE=   1;  MAXMIX= -45

 Intra band minimization:
   WEIMIN = 0.0000     energy-eigenvalue tresh-hold
   EBREAK =  0.19E-05  absolut break condition
   DEPER  =   0.30     relativ break condition  

   TIME   =   0.40     timestep for ELM

  volume/ion in A,a.u.               =      21.30       143.74
  Fermi-wavevector in a.u.,A,eV,Ry     =   1.279408  2.417730 22.271162  1.636884
  Thomas-Fermi vector in A             =   2.411895
 
 Write flags
   LWAVE        =      F    write WAVECAR
   LDOWNSAMPLE  =      F    k-point downsampling of WAVECAR
   LCHARG       =      T    write CHGCAR
   LVTOT        =      F    write LOCPOT, total local potential
   LVHAR        =      T    write LOCPOT, Hartree potential only
   LELF         =      F    write electronic localiz. function (ELF)
   LORBIT       =     11    0 simple, 1 ext, 2 COOP (PROOUT), +10 PAW based schemes


 Dipole corrections
   LMONO  =      F    monopole corrections only (constant potential shift)
   LDIPOL =      F    correct potential (dipole corrections)
   IDIPOL =      0    1-x, 2-y, 3-z, 4-all directions 
   EPSILON=  1.0000000 bulk dielectric constant

 Exchange correlation treatment:
   GGA     =    --    GGA type
   LEXCH   =     8    internal setting for exchange type
   LIBXC   =     F    Libxc                    
   VOSKOWN =     0    Vosko Wilk Nusair interpolation
   LHFCALC =     F    Hartree Fock is set to
   LHFONE  =     F    Hartree Fock one center treatment
   AEXX    =    0.0000 exact exchange contribution

 Linear response parameters
   LEPSILON=     F    determine dielectric tensor
   LRPA    =     F    only Hartree local field effects (RPA)
   LNABLA  =     F    use nabla operator in PAW spheres
   LVEL    =     F    velocity operator in full k-point grid
   CSHIFT  =0.1000    complex shift for real part using Kramers Kronig
   OMEGAMAX=  -1.0    maximum frequency
   DEG_THRESHOLD= 0.2000000E-02 threshold for treating states as degnerate
   RTIME   =   -0.100 relaxation time in fs
  (WPLASMAI=    0.000 imaginary part of plasma frequency in eV, 0.658/RTIME)
   DFIELD  = 0.0000000 0.0000000 0.0000000 field for delta impulse in time
 
  Optional k-point grid parameters
   LKPOINTS_OPT  =     F    use optional k-point grid
   KPOINTS_OPT_MODE=     1    mode for optional k-point grid
 
 Orbital magnetization related:
   ORBITALMAG=     F  switch on orbital magnetization
   LCHIMAG   =     F  perturbation theory with respect to B field
   DQ        =  0.001000  dq finite difference perturbation B field
   LLRAUG    =     F  two centre corrections for induced B field



--------------------------------------------------------------------------------------------------------


 Static calculation
 charge density and potential will be updated during run
 spin polarized calculation
 Variant of blocked Davidson
 Davidson routine will perform the subspace rotation
 perform sub-space diagonalisation
    after iterative eigenvector-optimisation
 modified Broyden-mixing scheme, WC =      100.0
 initial mixing is a Kerker type mixing with AMIX =  0.4000 and BMIX =      1.0000
 Hartree-type preconditioning will be used
 using additional bands            38
 real space projection scheme for non local part
 use partial core corrections
 calculate Harris-corrections to forces 
   (improved forces if not selfconsistent)
 use gradient corrections 
 use of overlap-Matrix (Vanderbilt PP)
 Fermi weights with tetrahedron method with Bloechl corrections


--------------------------------------------------------------------------------------------------------


  energy-cutoff  :      520.00
  volume of cell :      511.20
      direct lattice vectors                 reciprocal lattice vectors
     3.903901000  0.000000000  0.000000000     0.256154037  0.000000000  0.000000000
     0.000000000 10.228071000  0.000000000     0.000000000  0.097770146  0.000000000
     0.000000000  0.000000000 12.802502000     0.000000000  0.000000000  0.078109732

  length of vectors
     3.903901000 10.228071000 12.802502000     0.256154037  0.097770146  0.078109732


 
 k-points in units of 2pi/SCALE and weight: Kpoints from vasprun.xml                
   0.00000000  0.00000000  0.00000000       0.036
   0.03659343  0.00000000  0.00000000       0.071
   0.07318687  0.00000000  0.00000000       0.071
   0.10978030  0.00000000  0.00000000       0.071
   0.00000000  0.04888507  0.00000000       0.036
   0.03659343  0.04888507  0.00000000       0.071
   0.07318687  0.04888507  0.00000000       0.071
   0.10978030  0.04888507  0.00000000       0.071
   0.00000000  0.00000000  0.03905487       0.036
   0.03659343  0.00000000  0.03905487       0.071
   0.07318687  0.00000000  0.03905487       0.071
   0.10978030  0.00000000  0.03905487       0.071
   0.00000000  0.04888507  0.03905487       0.036
   0.03659343  0.04888507  0.03905487       0.071
   0.07318687  0.04888507  0.03905487       0.071
   0.10978030  0.04888507  0.03905487       0.071
 
 k-points in reciprocal lattice and weights: Kpoints from vasprun.xml                
   0.00000000  0.00000000  0.00000000       0.036
   0.14285714  0.00000000  0.00000000       0.071
   0.28571429  0.00000000  0.00000000       0.071
   0.42857143  0.00000000  0.00000000       0.071
   0.00000000  0.50000000  0.00000000       0.036
   0.14285714  0.50000000  0.00000000       0.071
   0.28571429  0.50000000  0.00000000       0.071
   0.42857143  0.50000000  0.00000000       0.071
   0.00000000  0.00000000  0.50000000       0.036
   0.14285714  0.00000000  0.50000000       0.071
   0.28571429  0.00000000  0.50000000       0.071
   0.42857143  0.00000000  0.50000000       0.071
   0.00000000  0.50000000  0.50000000       0.036
   0.14285714  0.50000000  0.50000000       0.071
   0.28571429  0.50000000  0.50000000       0.071
   0.42857143  0.50000000  0.50000000       0.071
 
 position of ions in fractional coordinates (direct lattice) 
   0.75000000  0.72723500  0.49957200
   0.25000000  0.27276500  0.50042800
   0.75000000  0.22723500  0.00042800
   0.25000000  0.77276500  0.99957200
   0.75000000  0.48567000  0.75710800
   0.25000000  0.51433000  0.24289200
   0.75000000  0.98567000  0.74289200
   0.25000000  0.01433000  0.25710800
   0.75000000  0.26293600  0.27653100
   0.25000000  0.73706400  0.72346900
   0.75000000  0.76293600  0.22346900
   0.25000000  0.23706400  0.77653100
   0.75000000  0.44586300  0.38548900
   0.25000000  0.55413700  0.61451100
   0.75000000  0.94586300  0.11451100
   0.25000000  0.05413700  0.88548900
   0.75000000  0.08944200  0.39338500
   0.25000000  0.91055800  0.60661500
   0.75000000  0.58944200  0.10661500
   0.25000000  0.41055800  0.89338500
   0.75000000  0.23938700  0.67067600
   0.25000000  0.76061300  0.32932400
   0.75000000  0.73938700  0.82932400
   0.25000000  0.26061300  0.17067600
 
 position of ions in cartesian coordinates  (Angst):
   2.92792575  7.43821121  6.39577153
   0.97597525  2.78985979  6.40673047
   2.92792575  2.32417571  0.00547947
   0.97597525  7.90389529 12.79702253
   2.92792575  4.96746724  9.69287668
   0.97597525  5.26060376  3.10962532
   2.92792575 10.08150274  9.51087632
   0.97597525  0.14656826  3.29162568
   2.92792575  2.68932808  3.54028868
   0.97597525  7.53874292  9.26221332
   2.92792575  7.80336358  2.86096232
   0.97597525  2.42470742  9.94153968
   2.92792575  4.56031842  4.93522369
   0.97597525  5.66775258  7.86727831
   2.92792575  9.67435392  1.46602731
   0.97597525  0.55371708 11.33647469
   2.92792575  0.91481913  5.03631225
   0.97597525  9.31325187  7.76618975
   2.92792575  6.02885463  1.36493875
   0.97597525  4.19921637 11.43756325
   2.92792575  2.44846723  8.58633083
   0.97597525  7.77960377  4.21617117
   2.92792575  7.56250273 10.61742217
   0.97597525  2.66556827  2.18507983
 


--------------------------------------------------------------------------------------------------------


 k-point   1 :   0.0000 0.0000 0.0000  plane waves:   13779
 k-point   2 :   0.1429 0.0000 0.0000  plane waves:   13767
 k-point   3 :   0.2857 0.0000 0.0000  plane waves:   13756
 k-point   4 :   0.4286 0.0000 0.0000  plane waves:   13738
 k-point   5 :   0.0000 0.5000 0.0000  plane waves:   13790
 k-point   6 :   0.1429 0.5000 0.0000  plane waves:   13748
 k-point   7 :   0.2857 0.5000 0.0000  plane waves:   13754
 k-point   8 :   0.4286 0.5000 0.0000  plane waves:   13772
 k-point   9 :   0.0000 0.0000 0.5000  plane waves:   13756
 k-point  10 :   0.1429 0.0000 0.5000  plane waves:   13778
 k-point  11 :   0.2857 0.0000 0.5000  plane waves:   13742
 k-point  12 :   0.4286 0.0000 0.5000  plane waves:   13762
 k-point  13 :   0.0000 0.5000 0.5000  plane waves:   13820
 k-point  14 :   0.1429 0.5000 0.5000  plane waves:   13756
 k-point  15 :   0.2857 0.5000 0.5000  plane waves:   13752
 k-point  16 :   0.4286 0.5000 0.5000  plane waves:   13820

 maximum and minimum number of plane-waves per node :     13820    13738

 maximum number of plane-waves:     13820
 maximum index in each direction: 
   IXMAX=    7   IYMAX=   19   IZMAX=   23
   IXMIN=   -7   IYMIN=  -19   IZMIN=  -24


 serial   3D FFT for wavefunctions
 parallel 3D FFT for charge:
    minimum data exchange during FFTs selected (reduces bandwidth)


 total amount of memory used by VASP MPI-rank0   482032. kBytes
=======================================================================

   base      :      30000. kBytes
   nonlr-proj:      27561. kBytes
   fftplans  :      68413. kBytes
   grid      :      63129. kBytes
   one-center:       2359. kBytes
   wavefun   :     290570. kBytes
 
     INWAV:  cpu time      0.0002: real time      0.0008
 Broyden mixing: mesh for mixing (old mesh)
   NGX = 15   NGY = 39   NGZ = 47
  (NGX  = 60   NGY  =160   NGZ  =192)
  gives a total of  27495 points

 charge density for first step will be calculated from the start-wavefunctions


--------------------------------------------------------------------------------------------------------


 Maximum index for non-local projection operator         12296
 Maximum index for augmentation-charges         78408 (set IRDMAX)


--------------------------------------------------------------------------------------------------------


 initial charge from wavefunction
 First call to EWALD:  gamma=   0.222
 Maximum number of real-space cells 5x 2x 2
 Maximum number of reciprocal cells 2x 3x 4

    FEWALD:  cpu time      0.0020: real time      0.0020


--------------------------------------- Iteration      1(   1)  ---------------------------------------


    POTLOK:  cpu time      0.1237: real time      0.1857
    SETDIJ:  cpu time      2.7281: real time      2.7301
     EDDAV:  cpu time      8.0780: real time      8.1272
 BZINTS: Fermi energy:   33.728942;  244.000000 electrons
         Band energy:-0.258739E+05;  BLOECHL correction:   -0.917030
       DOS:  cpu time      0.1095: real time      0.1096
    --------------------------------------------
      LOOP:  cpu time     11.0393: real time     11.1526

 eigenvalue-minimisations  : 18864
 total energy-change (2. order) :-0.1173865E+05  (-0.3190178E+05)
 number of electron     244.0000001 magnetization      -0.0000000
 augmentation part       20.3675293 magnetization      -0.0386468

 Free energy of the ion-electron system (eV)
  ---------------------------------------------------
  alpha Z        PSCENC =      1282.63200635
  Ewald energy   TEWEN  =    -19727.43821509
  -Hartree energ DENC   =      -622.86634593
  -exchange      EXHF   =         0.00000000
  -V(xc)+E(xc)   XCENC  =       493.26443328
  PAW double counting   =   1066450.82432078 -1066630.61901025
  entropy T*S    EENTRO =         0.00000000
  eigenvalues    EBANDS =    -25873.91876446
  atomic energy  EATOM  =     32889.47341916
  Solvation  Ediel_sol  =         0.00000000
  ---------------------------------------------------
  free energy    TOTEN  =    -11738.64815614 eV

  energy without entropy =   -11738.64815614  energy(sigma->0) =   -11738.64815614


--------------------------------------------------------------------------------------------------------




--------------------------------------- Iteration      1(   2)  ---------------------------------------


     EDDAV:  cpu time      5.9860: real time      5.9961
 BZINTS: Fermi energy:  -20.254864;  244.000000 electrons
         Band energy:-0.346729E+05;  BLOECHL correction:   -0.843665
       DOS:  cpu time      0.1061: real time      0.1062
    --------------------------------------------
      LOOP:  cpu time      6.0921: real time      6.1023

 eigenvalue-minimisations  : 13440
 total energy-change (2. order) :-0.8799009E+04  (-0.8022727E+04)
 number of electron     244.0000001 magnetization      -0.0000000
 augmentation part       20.3675293 magnetization      -0.0386468

 Free energy of the ion-electron system (eV)
  ---------------------------------------------------
  alpha Z        PSCENC =      1282.63200635
  Ewald energy   TEWEN  =    -19727.43821509
  -Hartree energ DENC   =      -622.86634593
  -exchange      EXHF   =         0.00000000
  -V(xc)+E(xc)   XCENC  =       493.26443328
  PAW double counting   =   1066450.82432078 -1066630.61901025
  entropy T*S    EENTRO =         0.00000000
  eigenvalues    EBANDS =    -34672.92770513
  atomic energy  EATOM  =     32889.47341916
  Solvation  Ediel_sol  =         0.00000000
  ---------------------------------------------------
  free energy    TOTEN  =    -20537.65709681 eV

  energy without entropy =   -20537.65709681  energy(sigma->0) =   -20537.65709681


--------------------------------------------------------------------------------------------------------




--------------------------------------- Iteration      1(   3)  ---------------------------------------


     EDDAV:  cpu time      6.9936: real time      7.0020
 BZINTS: Fermi energy:  -42.465135;  244.000000 electrons
         Band energy:-0.369636E+05;  BLOECHL correction:   -0.308546
       DOS:  cpu time      0.1003: real time      0.1003
    --------------------------------------------
      LOOP:  cpu time      7.0938: real time      7.1023

 eigenvalue-minimisations  : 16256
 total energy-change (2. order) :-0.2290682E+04  (-0.2044913E+04)
 number of electron     244.0000001 magnetization      -0.0000000
 augmentation part       20.3675293 magnetization      -0.0386468

 Free energy of the ion-electron system (eV)
  ---------------------------------------------------
  alpha Z        PSCENC =      1282.63200635
  Ewald energy   TEWEN  =    -19727.43821509
  -Hartree energ DENC   =      -622.86634593
  -exchange      EXHF   =         0.00000000
  -V(xc)+E(xc)   XCENC  =       493.26443328
  PAW double counting   =   1066450.82432078 -1066630.61901025
  entropy T*S    EENTRO =         0.00000000
  eigenvalues    EBANDS =    -36963.60993068
  atomic energy  EATOM  =     32889.47341916
  Solvation  Ediel_sol  =         0.00000000
  ---------------------------------------------------
  free energy    TOTEN  =    -22828.33932236 eV

  energy without entropy =   -22828.33932236  energy(sigma->0) =   -22828.33932236


--------------------------------------------------------------------------------------------------------




--------------------------------------- Iteration      1(   4)  ---------------------------------------


     EDDAV:  cpu time      8.0779: real time      8.0880
 BZINTS: Fermi energy:  -57.618901;  244.000000 electrons
         Band energy:-0.376835E+05;  BLOECHL correction:   -0.152063
       DOS:  cpu time      0.1010: real time      0.1012
    --------------------------------------------
      LOOP:  cpu time      8.1789: real time      8.1892

 eigenvalue-minimisations  : 19008
 total energy-change (2. order) :-0.7198696E+03  (-0.5484535E+03)
 number of electron     244.0000001 magnetization      -0.0000000
 augmentation part       20.3675293 magnetization      -0.0386468

 Free energy of the ion-electron system (eV)
  ---------------------------------------------------
  alpha Z        PSCENC =      1282.63200635
  Ewald energy   TEWEN  =    -19727.43821509
  -Hartree energ DENC   =      -622.86634593
  -exchange      EXHF   =         0.00000000
  -V(xc)+E(xc)   XCENC  =       493.26443328
  PAW double counting   =   1066450.82432078 -1066630.61901025
  entropy T*S    EENTRO =         0.00000000
  eigenvalues    EBANDS =    -37683.47948718
  atomic energy  EATOM  =     32889.47341916
  Solvation  Ediel_sol  =         0.00000000
  ---------------------------------------------------
  free energy    TOTEN  =    -23548.20887886 eV

  energy without entropy =   -23548.20887886  energy(sigma->0) =   -23548.20887886


--------------------------------------------------------------------------------------------------------




--------------------------------------- Iteration      1(   5)  ---------------------------------------


     EDDAV:  cpu time      7.8949: real time      7.9031
 BZINTS: Fermi energy:  -62.435107;  244.000000 electrons
         Band energy:-0.378288E+05;  BLOECHL correction:   -0.045310
       DOS:  cpu time      0.0908: real time      0.0909
    CHARGE:  cpu time      0.3470: real time      0.3472
    MIXING:  cpu time      0.0058: real time      0.0058
    --------------------------------------------
      LOOP:  cpu time      8.3385: real time      8.3469

 eigenvalue-minimisations  : 18608
 total energy-change (2. order) :-0.1452800E+03  (-0.1305021E+03)
 number of electron     244.0000003 magnetization      -0.0448305
 augmentation part       85.3714482 magnetization       0.0355478

 Broyden mixing:
  rms(total) = 0.75778E+03    rms(broyden)= 0.75778E+03
  rms(prec ) = 0.75958E+03
  weight for this iteration     100.00

 Free energy of the ion-electron system (eV)
  ---------------------------------------------------
  alpha Z        PSCENC =      1282.63200635
  Ewald energy   TEWEN  =    -19727.43821509
  -Hartree energ DENC   =      -622.86634593
  -exchange      EXHF   =         0.00000000
  -V(xc)+E(xc)   XCENC  =       493.26443328
  PAW double counting   =   1066450.82432078 -1066630.61901025
  entropy T*S    EENTRO =         0.00000000
  eigenvalues    EBANDS =    -37828.75944828
  atomic energy  EATOM  =     32889.47341916
  Solvation  Ediel_sol  =         0.00000000
  ---------------------------------------------------
  free energy    TOTEN  =    -23693.48883996 eV

  energy without entropy =   -23693.48883996  energy(sigma->0) =   -23693.48883996


--------------------------------------------------------------------------------------------------------




--------------------------------------- Iteration      1(   6)  ---------------------------------------


    POTLOK:  cpu time      0.0113: real time      0.0123
    SETDIJ:  cpu time      2.7136: real time      2.7154
     EDDAV:  cpu time      6.6253: real time      6.6307
 BZINTS: Fermi energy:    0.255659;  244.000000 electrons
         Band energy:-0.967597E+04;  BLOECHL correction:   -0.334439
       DOS:  cpu time      0.1028: real time      0.1029
    CHARGE:  cpu time      0.3434: real time      0.3443
    MIXING:  cpu time      0.0077: real time      0.0312
    --------------------------------------------
      LOOP:  cpu time      9.8042: real time      9.8367

 eigenvalue-minimisations  : 15160
 total energy-change (2. order) : 0.2110880E+05  (-0.4569822E+04)
 number of electron     244.0000004 magnetization       0.0937641
 augmentation part       96.9991912 magnetization       0.0256365

 Broyden mixing:
  rms(total) = 0.22543E+03    rms(broyden)= 0.22543E+03
  rms(prec ) = 0.22654E+03
  weight for this iteration     100.00

 eigenvalues of (default mixing * dielectric matrix)
  average eigenvalue GAMMA=   0.8579
  0.8579

 Free energy of the ion-electron system (eV)
  ---------------------------------------------------
  alpha Z        PSCENC =      1282.63200635
  Ewald energy   TEWEN  =    -19727.43821509
  -Hartree energ DENC   =     -6725.09949923
  -exchange      EXHF   =         0.00000000
  -V(xc)+E(xc)   XCENC  =       700.59824717
  PAW double counting   =  19014908.36125943-19016237.25256257
  entropy T*S    EENTRO =         0.00000000
  eigenvalues    EBANDS =     -9675.96589166
  atomic energy  EATOM  =     32889.47341916
  Solvation  Ediel_sol  =         0.00000000
  ---------------------------------------------------
  free energy    TOTEN  =     -2584.69123643 eV

  energy without entropy =    -2584.69123643  energy(sigma->0) =    -2584.69123643


--------------------------------------------------------------------------------------------------------




--------------------------------------- Iteration      1(   7)  ---------------------------------------


    POTLOK:  cpu time      0.0115: real time      0.0119
    SETDIJ:  cpu time      2.7149: real time      2.7169
     EDDAV:  cpu time      7.5266: real time      7.5338
 BZINTS: Fermi energy:    4.764216;  244.000000 electrons
         Band energy:-0.444345E+04;  BLOECHL correction:   -0.140398
       DOS:  cpu time      0.1037: real time      0.1038
    CHARGE:  cpu time      0.3419: real time      0.3422
    MIXING:  cpu time      0.0046: real time      0.0046
    --------------------------------------------
      LOOP:  cpu time     10.7032: real time     10.7131

 eigenvalue-minimisations  : 17480
 total energy-change (2. order) : 0.9031691E+03  (-0.2438460E+04)
 number of electron     244.0000003 magnetization       0.1373542
 augmentation part       67.8132279 magnetization      -0.2726629

 Broyden mixing:
  rms(total) = 0.29154E+03    rms(broyden)= 0.29154E+03
  rms(prec ) = 0.29201E+03
  weight for this iteration     100.00

 eigenvalues of (default mixing * dielectric matrix)
  average eigenvalue GAMMA=   0.6953
  0.6953  0.6953

 Free energy of the ion-electron system (eV)
  ---------------------------------------------------
  alpha Z        PSCENC =      1282.63200635
  Ewald energy   TEWEN  =    -19727.43821509
  -Hartree energ DENC   =    -10590.55184997
  -exchange      EXHF   =         0.00000000
  -V(xc)+E(xc)   XCENC  =       807.02708565
  PAW double counting   =  38033207.46521873-38035106.68082723
  entropy T*S    EENTRO =         0.00000000
  eigenvalues    EBANDS =     -4443.44899556
  atomic energy  EATOM  =     32889.47341916
  Solvation  Ediel_sol  =         0.00000000
  ---------------------------------------------------
  free energy    TOTEN  =     -1681.52215795 eV

  energy without entropy =    -1681.52215795  energy(sigma->0) =    -1681.52215795


--------------------------------------------------------------------------------------------------------




--------------------------------------- Iteration      1(   8)  ---------------------------------------


    POTLOK:  cpu time      0.0109: real time      0.0120
    SETDIJ:  cpu time      2.7257: real time      2.7274
     EDDAV:  cpu time      7.9180: real time      7.9245
 BZINTS: Fermi energy:   -0.114663;  244.000000 electrons
         Band energy:-0.468907E+04;  BLOECHL correction:   -0.045909
       DOS:  cpu time      0.1064: real time      0.1064
    CHARGE:  cpu time      0.3427: real time      0.3430
    MIXING:  cpu time      0.0048: real time      0.0048
    --------------------------------------------
      LOOP:  cpu time     11.1085: real time     11.1181

 eigenvalue-minimisations  : 18568
 total energy-change (2. order) : 0.9381296E+03  (-0.7868915E+03)
 number of electron     244.0000004 magnetization       0.1345171
 augmentation part       75.5853721 magnetization      -0.0864631

 Broyden mixing:
  rms(total) = 0.22522E+03    rms(broyden)= 0.22522E+03
  rms(prec ) = 0.22549E+03
  weight for this iteration     100.00

 eigenvalues of (default mixing * dielectric matrix)
  average eigenvalue GAMMA=   0.4657
  0.6961  0.6961  0.0047

 Free energy of the ion-electron system (eV)
  ---------------------------------------------------
  alpha Z        PSCENC =      1282.63200635
  Ewald energy   TEWEN  =    -19727.43821509
  -Hartree energ DENC   =     -9783.56688718
  -exchange      EXHF   =         0.00000000
  -V(xc)+E(xc)   XCENC  =       778.64438128
  PAW double counting   =  19982029.95804659-19983524.02373918
  entropy T*S    EENTRO =         0.00000000
  eigenvalues    EBANDS =     -4689.07161766
  atomic energy  EATOM  =     32889.47341916
  Solvation  Ediel_sol  =         0.00000000
  ---------------------------------------------------
  free energy    TOTEN  =      -743.39260572 eV

  energy without entropy =     -743.39260572  energy(sigma->0) =     -743.39260572


--------------------------------------------------------------------------------------------------------




--------------------------------------- Iteration      1(   9)  ---------------------------------------


    POTLOK:  cpu time      0.0115: real time      0.0123
    SETDIJ:  cpu time      2.7241: real time      2.7255
     EDDAV:  cpu time      7.6454: real time      7.6534
 BZINTS: Fermi energy:    0.090627;  244.000000 electrons
         Band energy:-0.470369E+04;  BLOECHL correction:    0.000000
       DOS:  cpu time      0.0506: real time      0.0506
    CHARGE:  cpu time      0.3400: real time      0.3402
    MIXING:  cpu time      0.0058: real time      0.0058
    --------------------------------------------
      LOOP:  cpu time     10.7773: real time     10.7878

 eigenvalue-minimisations  : 17968
 total energy-change (2. order) :-0.4779598E+02  (-0.1410873E+03)
 number of electron     244.0000003 magnetization       0.0993651
 augmentation part       71.1245983 magnetization       0.0669331

 Broyden mixing:
  rms(total) = 0.22387E+03    rms(broyden)= 0.22387E+03
  rms(prec ) = 0.22425E+03
  weight for this iteration     100.00

 eigenvalues of (default mixing * dielectric matrix)
  average eigenvalue GAMMA=   0.4329
  0.6688  0.6688  0.1971  0.1971

 Free energy of the ion-electron system (eV)
  ---------------------------------------------------
  alpha Z        PSCENC =      1282.63200635
  Ewald energy   TEWEN  =    -19727.43821509
  -Hartree energ DENC   =     -9809.74204337
  -exchange      EXHF   =         0.00000000
  -V(xc)+E(xc)   XCENC  =       779.80412180
  PAW double counting   =  19147365.08644471-19148867.30953206
  entropy T*S    EENTRO =         0.00000000
  eigenvalues    EBANDS =     -4703.69478978
  atomic energy  EATOM  =     32889.47341916
  Solvation  Ediel_sol  =         0.00000000
  ---------------------------------------------------
  free energy    TOTEN  =      -791.18858828 eV

  energy without entropy =     -791.18858828  energy(sigma->0) =     -791.18858828


--------------------------------------------------------------------------------------------------------




--------------------------------------- Iteration      1(  10)  ---------------------------------------


    POTLOK:  cpu time      0.0111: real time      0.0119
    SETDIJ:  cpu time      2.7041: real time      2.7060
     EDDAV:  cpu time      6.8035: real time      6.8121
 BZINTS: Fermi energy:    0.776637;  244.000000 electrons
         Band energy:-0.501267E+04;  BLOECHL correction:   -0.016504
       DOS:  cpu time      0.0964: real time      0.0965
    CHARGE:  cpu time      0.3428: real time      0.3431
    MIXING:  cpu time      0.0049: real time      0.0049
    --------------------------------------------
      LOOP:  cpu time      9.9629: real time      9.9746

 eigenvalue-minimisations  : 15632
 total energy-change (2. order) :-0.3038631E+03  (-0.4361636E+03)
 number of electron     244.0000003 magnetization       0.1156058
 augmentation part       59.9064088 magnetization      -0.1402067

 Broyden mixing:
  rms(total) = 0.21658E+03    rms(broyden)= 0.21658E+03
  rms(prec ) = 0.21713E+03
  weight for this iteration     100.00

 eigenvalues of (default mixing * dielectric matrix)
  average eigenvalue GAMMA=   0.4511
  0.6329  0.6329  0.4078  0.4078  0.1741

 Free energy of the ion-electron system (eV)
  ---------------------------------------------------
  alpha Z        PSCENC =      1282.63200635
  Ewald energy   TEWEN  =    -19727.43821509
  -Hartree energ DENC   =     -9831.75558050
  -exchange      EXHF   =         0.00000000
  -V(xc)+E(xc)   XCENC  =       780.50501033
  PAW double counting   =  17543491.96728799-17544967.76783228
  entropy T*S    EENTRO =         0.00000000
  eigenvalues    EBANDS =     -5012.66782572
  atomic energy  EATOM  =     32889.47341916
  Solvation  Ediel_sol  =         0.00000000
  ---------------------------------------------------
  free energy    TOTEN  =     -1095.05172975 eV

  energy without entropy =    -1095.05172975  energy(sigma->0) =    -1095.05172975


--------------------------------------------------------------------------------------------------------




--------------------------------------- Iteration      1(  11)  ---------------------------------------


    POTLOK:  cpu time      0.0112: real time      0.0119
    SETDIJ:  cpu time      2.7091: real time      2.7117
     EDDAV:  cpu time      5.9914: real time      5.9974
 BZINTS: Fermi energy:   -0.904482;  244.000000 electrons
         Band energy:-0.536635E+04;  BLOECHL correction:   -0.039111
       DOS:  cpu time      0.0920: real time      0.0921
    CHARGE:  cpu time      0.3430: real time      0.3433
    MIXING:  cpu time      0.0057: real time      0.0057
    --------------------------------------------
      LOOP:  cpu time      9.1524: real time      9.1622

 eigenvalue-minimisations  : 13336
 total energy-change (2. order) :-0.2987424E+02  (-0.1330706E+03)
 number of electron     244.0000003 magnetization       0.0799141
 augmentation part       73.2847829 magnetization       0.0428130

 Broyden mixing:
  rms(total) = 0.20488E+03    rms(broyden)= 0.20488E+03
  rms(prec ) = 0.20553E+03
  weight for this iteration     100.00

 eigenvalues of (default mixing * dielectric matrix)
  average eigenvalue GAMMA=   0.5211
  0.8185  0.8185  0.5521  0.5521  0.1928  0.1928

 Free energy of the ion-electron system (eV)
  ---------------------------------------------------
  alpha Z        PSCENC =      1282.63200635
  Ewald energy   TEWEN  =    -19727.43821509
  -Hartree energ DENC   =     -9654.98856430
  -exchange      EXHF   =         0.00000000
  -V(xc)+E(xc)   XCENC  =       773.62493804
  PAW double counting   =  15090240.89657430-15091562.77859150
  entropy T*S    EENTRO =         0.00000000
  eigenvalues    EBANDS =     -5366.34753486
  atomic energy  EATOM  =     32889.47341916
  Solvation  Ediel_sol  =         0.00000000
  ---------------------------------------------------
  free energy    TOTEN  =     -1124.92596789 eV

  energy without entropy =    -1124.92596789  energy(sigma->0) =    -1124.92596789


--------------------------------------------------------------------------------------------------------




--------------------------------------- Iteration      1(  12)  ---------------------------------------


    POTLOK:  cpu time      0.0117: real time      0.0122
    SETDIJ:  cpu time      2.7238: real time      2.7278
     EDDAV:  cpu time      7.8550: real time      7.8722
 BZINTS: Fermi energy:   -0.721330;  244.000000 electrons
         Band energy:-0.571060E+04;  BLOECHL correction:   -0.035820
       DOS:  cpu time      0.1007: real time      0.1007
    CHARGE:  cpu time      0.3428: real time      0.3432
    MIXING:  cpu time      0.0065: real time      0.0065
    --------------------------------------------
      LOOP:  cpu time     11.0404: real time     11.0626

 eigenvalue-minimisations  : 18352
 total energy-change (2. order) :-0.2829935E+03  (-0.7444085E+03)
 number of electron     244.0000004 magnetization      -0.1769530
 augmentation part       90.6211897 magnetization       0.1499037

 Broyden mixing:
  rms(total) = 0.16694E+03    rms(broyden)= 0.16694E+03
  rms(prec ) = 0.16792E+03
  weight for this iteration     100.00

 eigenvalues of (default mixing * dielectric matrix)
  average eigenvalue GAMMA=   0.6702
  1.3673  1.3673  0.6699  0.6699  0.2245  0.2245  0.1683

 Free energy of the ion-electron system (eV)
  ---------------------------------------------------
  alpha Z        PSCENC =      1282.63200635
  Ewald energy   TEWEN  =    -19727.43821509
  -Hartree energ DENC   =     -9747.06147392
  -exchange      EXHF   =         0.00000000
  -V(xc)+E(xc)   XCENC  =       778.67858306
  PAW double counting   =   8894582.29791482 -8895755.90577032
  entropy T*S    EENTRO =         0.00000000
  eigenvalues    EBANDS =     -5710.59595202
  atomic energy  EATOM  =     32889.47341916
  Solvation  Ediel_sol  =         0.00000000
  ---------------------------------------------------
  free energy    TOTEN  =     -1407.91948797 eV

  energy without entropy =    -1407.91948797  energy(sigma->0) =    -1407.91948797


--------------------------------------------------------------------------------------------------------




--------------------------------------- Iteration      1(  13)  ---------------------------------------


    POTLOK:  cpu time      0.0114: real time      0.0121
    SETDIJ:  cpu time      2.7172: real time      2.7198
     EDDAV:  cpu time      7.7508: real time      7.7617
 BZINTS: Fermi energy:    1.712841;  244.000000 electrons
         Band energy:-0.465241E+04;  BLOECHL correction:   -0.025953
       DOS:  cpu time      0.0984: real time      0.0985
    CHARGE:  cpu time      0.3441: real time      0.3445
    MIXING:  cpu time      0.0069: real time      0.0069
    --------------------------------------------
      LOOP:  cpu time     10.9288: real time     10.9435

 eigenvalue-minimisations  : 18120
 total energy-change (2. order) : 0.1719919E+03  (-0.1440965E+03)
 number of electron     244.0000004 magnetization      -0.1847632
 augmentation part       78.8040410 magnetization      -0.6311624

 Broyden mixing:
  rms(total) = 0.88646E+02    rms(broyden)= 0.88646E+02
  rms(prec ) = 0.90005E+02
  weight for this iteration     100.00

 eigenvalues of (default mixing * dielectric matrix)
  average eigenvalue GAMMA=   0.7901
  2.5707  1.0697  0.7694  0.7694  0.4904  0.2394  0.2394  0.1722

 Free energy of the ion-electron system (eV)
  ---------------------------------------------------
  alpha Z        PSCENC =      1282.63200635
  Ewald energy   TEWEN  =    -19727.43821509
  -Hartree energ DENC   =    -10787.33918892
  -exchange      EXHF   =         0.00000000
  -V(xc)+E(xc)   XCENC  =       821.14290439
  PAW double counting   =   1040324.90083847 -1041386.89094324
  entropy T*S    EENTRO =         0.00000000
  eigenvalues    EBANDS =     -4652.40840380
  atomic energy  EATOM  =     32889.47341916
  Solvation  Ediel_sol  =         0.00000000
  ---------------------------------------------------
  free energy    TOTEN  =     -1235.92758267 eV

  energy without entropy =    -1235.92758267  energy(sigma->0) =    -1235.92758267


--------------------------------------------------------------------------------------------------------




--------------------------------------- Iteration      1(  14)  ---------------------------------------


    POTLOK:  cpu time      0.0109: real time      0.0118
    SETDIJ:  cpu time      2.5614: real time      2.5636
     EDDAV:  cpu time      6.5168: real time      6.5228
 BZINTS: Fermi energy:    6.372351;  244.000000 electrons
         Band energy:-0.556154E+04;  BLOECHL correction:   -0.050068
       DOS:  cpu time      0.1011: real time      0.1012
    CHARGE:  cpu time      0.3454: real time      0.3463
    MIXING:  cpu time      0.0064: real time      0.0064
    --------------------------------------------
      LOOP:  cpu time      9.5420: real time      9.5521

 eigenvalue-minimisations  : 14672
 total energy-change (2. order) :-0.1473797E+04  (-0.5326614E+03)
 number of electron     244.0000003 magnetization      -0.1972083
 augmentation part       74.1157556 magnetization      -0.0891228

 Broyden mixing:
  rms(total) = 0.10005E+03    rms(broyden)= 0.10005E+03
  rms(prec ) = 0.10159E+03
  weight for this iteration     100.00

 eigenvalues of (default mixing * dielectric matrix)
  average eigenvalue GAMMA=   0.7058
  2.1428  1.2632  0.7647  0.7647  0.3862  0.3862  0.2374  0.2374  0.1699

 Free energy of the ion-electron system (eV)
  ---------------------------------------------------
  alpha Z        PSCENC =      1282.63200635
  Ewald energy   TEWEN  =    -19727.43821509
  -Hartree energ DENC   =    -11843.18172255
  -exchange      EXHF   =         0.00000000
  -V(xc)+E(xc)   XCENC  =       878.47696257
  PAW double counting   =   4042310.05105376 -4042938.19921208
  entropy T*S    EENTRO =         0.00000000
  eigenvalues    EBANDS =     -5561.53879827
  atomic energy  EATOM  =     32889.47341916
  Solvation  Ediel_sol  =         0.00000000
  ---------------------------------------------------
  free energy    TOTEN  =     -2709.72450614 eV

  energy without entropy =    -2709.72450614  energy(sigma->0) =    -2709.72450614


--------------------------------------------------------------------------------------------------------




--------------------------------------- Iteration      1(  15)  ---------------------------------------


    POTLOK:  cpu time      0.0117: real time      0.0126
    SETDIJ:  cpu time      2.5877: real time      2.5890
     EDDAV:  cpu time      8.3151: real time      8.3253
 BZINTS: Fermi energy:    3.614425;  244.000000 electrons
         Band energy:-0.530897E+04;  BLOECHL correction:   -0.039571
       DOS:  cpu time      0.0993: real time      0.0994
    CHARGE:  cpu time      0.3440: real time      0.3443
    MIXING:  cpu time      0.0060: real time      0.0060
    --------------------------------------------
      LOOP:  cpu time     11.3637: real time     11.3766

 eigenvalue-minimisations  : 19616
 total energy-change (2. order) : 0.3728802E+03  (-0.1024880E+03)
 number of electron     244.0000004 magnetization      -0.1984757
 augmentation part       84.1644434 magnetization       0.1656369

 Broyden mixing:
  rms(total) = 0.80616E+02    rms(broyden)= 0.80616E+02
  rms(prec ) = 0.83248E+02
  weight for this iteration     100.00

 eigenvalues of (default mixing * dielectric matrix)
  average eigenvalue GAMMA=   0.6360
  2.1527  1.2563  0.7628  0.7628  0.3438  0.3438  0.2374  0.2374  0.1677  0.0950

 Free energy of the ion-electron system (eV)
  ---------------------------------------------------
  alpha Z        PSCENC =      1282.63200635
  Ewald energy   TEWEN  =    -19727.43821509
  -Hartree energ DENC   =    -11739.55497230
  -exchange      EXHF   =         0.00000000
  -V(xc)+E(xc)   XCENC  =       866.31956409
  PAW double counting   =   2149920.53625144 -2150519.83799064
  entropy T*S    EENTRO =         0.00000000
  eigenvalues    EBANDS =     -5308.97441338
  atomic energy  EATOM  =     32889.47341916
  Solvation  Ediel_sol  =         0.00000000
  ---------------------------------------------------
  free energy    TOTEN  =     -2336.84435035 eV

  energy without entropy =    -2336.84435035  energy(sigma->0) =    -2336.84435035


--------------------------------------------------------------------------------------------------------




--------------------------------------- Iteration      1(  16)  ---------------------------------------


    POTLOK:  cpu time      0.0114: real time      0.0121
    SETDIJ:  cpu time      2.5874: real time      2.5900
     EDDAV:  cpu time      7.3935: real time      7.4038
 BZINTS: Fermi energy:    3.149448;  244.000000 electrons
         Band energy:-0.523832E+04;  BLOECHL correction:   -0.043625
       DOS:  cpu time      0.0985: real time      0.0986
    CHARGE:  cpu time      0.3443: real time      0.3446
    MIXING:  cpu time      0.0077: real time      0.0077
    --------------------------------------------
      LOOP:  cpu time     10.4428: real time     10.4567

 eigenvalue-minimisations  : 17104
 total energy-change (2. order) : 0.1183930E+02  (-0.5094924E+02)
 number of electron     244.0000004 magnetization      -0.1975061
 augmentation part       81.8375691 magnetization       0.0338594

 Broyden mixing:
  rms(total) = 0.80220E+02    rms(broyden)= 0.80220E+02
  rms(prec ) = 0.83051E+02
  weight for this iteration     100.00

 eigenvalues of (default mixing * dielectric matrix)
  average eigenvalue GAMMA=   0.5820
  2.1646  1.2496  0.7652  0.7652  0.3134  0.3134  0.2392  0.2392  0.1645  0.0938
  0.0938

 Free energy of the ion-electron system (eV)
  ---------------------------------------------------
  alpha Z        PSCENC =      1282.63200635
[...]
     EDDAV:  cpu time      7.1257: real time      7.1350
 BZINTS: Fermi energy:    5.489533;  244.000000 electrons
         Band energy:-0.273880E+07;  BLOECHL correction: -425.127518
       DOS:  cpu time      0.1800: real time      0.1802
    CHARGE:  cpu time      0.3501: real time      0.3505
    MIXING:  cpu time      0.0146: real time      0.0147
    --------------------------------------------
      LOOP:  cpu time     10.3889: real time     10.4019

 eigenvalue-minimisations  : 16456
 total energy-change (2. order) :-0.1897500E+06  (-0.2545464E+07)
 number of electron     218.2654554 magnetization     -39.3130729
 augmentation part       69.6204366 magnetization     -20.7736611

 Broyden mixing:
  rms(total) = 0.46819E+02    rms(broyden)= 0.46818E+02
  rms(prec ) = 0.47425E+02
  weight for this iteration     100.00

 eigenvalues of (default mixing * dielectric matrix)
  average eigenvalue GAMMA=   0.1701
  0.6508  0.4643  0.4264  0.4264  0.3955  0.3955  0.3450  0.3450  0.3460  0.2726
  0.2726  0.1757  0.1757  0.1848  0.1848  0.1977  0.1866  0.1866  0.1548  0.1548
  0.1081  0.1081  0.0907  0.0907  0.0869  0.0869  0.0393  0.0393  0.0359  0.0384
  0.0384  0.0199  0.0199  0.0129  0.0155  0.0155  0.0083  0.0029  0.0027  0.0027

 Free energy of the ion-electron system (eV)
  ---------------------------------------------------
  alpha Z        PSCENC =      1282.63200635
  Ewald energy   TEWEN  =    -19727.43821509
  -Hartree energ DENC   =    -11768.73509432
  -exchange      EXHF   =         0.00000000
  -V(xc)+E(xc)   XCENC  =       821.54355922
  PAW double counting   =     36262.15320469   -37520.71450571
  entropy T*S    EENTRO =         0.00000000
  eigenvalues    EBANDS =  -2738796.41905108
  atomic energy  EATOM  =     32889.47341916
  Solvation  Ediel_sol  =         0.00000000
  ---------------------------------------------------
  free energy    TOTEN  =  -2736557.50467677 eV

  energy without entropy = -2736557.50467677  energy(sigma->0) = -2736557.50467677


--------------------------------------------------------------------------------------------------------




--------------------------------------- Iteration      1( 776)  ---------------------------------------


    POTLOK:  cpu time      0.0115: real time      0.0122
    SETDIJ:  cpu time      2.6898: real time      2.6921
     EDDAV:  cpu time      6.9575: real time      6.9669
 BZINTS: Fermi energy:    5.627740;  244.000000 electrons
         Band energy:-0.178011E+07;  BLOECHL correction: -349.429635
       DOS:  cpu time      0.1648: real time      0.1649
    CHARGE:  cpu time      0.3496: real time      0.3499
    MIXING:  cpu time      0.0139: real time      0.0139
    --------------------------------------------
      LOOP:  cpu time     10.1870: real time     10.2000

 eigenvalue-minimisations  : 15984
 total energy-change (2. order) : 0.9586438E+06  (-0.1590429E+07)
 number of electron     220.4327059 magnetization     -39.0522622
 augmentation part       69.5917891 magnetization     -21.9738550

 Broyden mixing:
  rms(total) = 0.46390E+02    rms(broyden)= 0.46390E+02
  rms(prec ) = 0.47365E+02
  weight for this iteration     100.00

 eigenvalues of (default mixing * dielectric matrix)
  average eigenvalue GAMMA=   0.1775
  0.6527  0.4713  0.4326  0.4326  0.4493  0.3541  0.3541  0.3819  0.3819  0.3698
  0.2710  0.2710  0.1764  0.1764  0.1842  0.1842  0.1921  0.1921  0.1893  0.1499
  0.1499  0.1060  0.1060  0.0883  0.0883  0.0867  0.0867  0.0395  0.0395  0.0358
  0.0348  0.0348  0.0223  0.0223  0.0197  0.0197  0.0136  0.0073  0.0031  0.0031
  0.0017

 Free energy of the ion-electron system (eV)
  ---------------------------------------------------
  alpha Z        PSCENC =      1282.63200635
  Ewald energy   TEWEN  =    -19727.43821509
  -Hartree energ DENC   =    -11817.99686241
  -exchange      EXHF   =         0.00000000
  -V(xc)+E(xc)   XCENC  =       812.20974048
  PAW double counting   =     36812.04319313   -38054.33557303
  entropy T*S    EENTRO =         0.00000000
  eigenvalues    EBANDS =  -1780110.31028692
  atomic energy  EATOM  =     32889.47341916
  Solvation  Ediel_sol  =         0.00000000
  ---------------------------------------------------
  free energy    TOTEN  =  -1777913.72257833 eV

  energy without entropy = -1777913.72257833  energy(sigma->0) = -1777913.72257833


--------------------------------------------------------------------------------------------------------




--------------------------------------- Iteration      1( 777)  ---------------------------------------


    POTLOK:  cpu time      0.0113: real time      0.0121
    SETDIJ:  cpu time      2.6912: real time      2.6935
     EDDAV:  cpu time      7.0536: real time      7.0632
 BZINTS: Fermi energy:    5.324819;  244.000000 electrons
         Band energy:-0.262991E+07;  BLOECHL correction: -381.746350
       DOS:  cpu time      0.1632: real time      0.1634
    CHARGE:  cpu time      0.3528: real time      0.3531
    MIXING:  cpu time      0.0147: real time      0.0147
    --------------------------------------------
      LOOP:  cpu time     10.2869: real time     10.3000

 eigenvalue-minimisations  : 16296
 total energy-change (2. order) :-0.8497916E+06  (-0.1836972E+07)
 number of electron     217.7940203 magnetization     -38.9408883
 augmentation part       70.2562499 magnetization     -21.5136473

 Broyden mixing:
  rms(total) = 0.46050E+02    rms(broyden)= 0.46050E+02
  rms(prec ) = 0.46627E+02
  weight for this iteration     100.00

 eigenvalues of (default mixing * dielectric matrix)
  average eigenvalue GAMMA=   0.1795
  0.6520  0.4783  0.4783  0.4625  0.3983  0.3983  0.3622  0.3622  0.3699  0.3699
  0.2682  0.2682  0.1752  0.1752  0.1972  0.1972  0.2005  0.2005  0.1755  0.1755
  0.1498  0.1498  0.1055  0.1055  0.0911  0.0911  0.0881  0.0881  0.0357  0.0359
  0.0359  0.0436  0.0436  0.0255  0.0186  0.0186  0.0145  0.0118  0.0118  0.0045
  0.0045  0.0015

 Free energy of the ion-electron system (eV)
  ---------------------------------------------------
  alpha Z        PSCENC =      1282.63200635
  Ewald energy   TEWEN  =    -19727.43821509
  -Hartree energ DENC   =    -11814.22366609
  -exchange      EXHF   =         0.00000000
  -V(xc)+E(xc)   XCENC  =       817.83290585
  PAW double counting   =     37448.76721272   -38695.46897561
  entropy T*S    EENTRO =         0.00000000
  eigenvalues    EBANDS =  -2629906.85615390
  atomic energy  EATOM  =     32889.47341916
  Solvation  Ediel_sol  =         0.00000000
  ---------------------------------------------------
  free energy    TOTEN  =  -2627705.28146661 eV

  energy without entropy = -2627705.28146661  energy(sigma->0) = -2627705.28146661


--------------------------------------------------------------------------------------------------------




--------------------------------------- Iteration      1( 778)  ---------------------------------------


    POTLOK:  cpu time      0.0114: real time      0.0124
    SETDIJ:  cpu time      2.7072: real time      2.7091
     EDDAV:  cpu time      6.8461: real time      6.8549
 BZINTS: Fermi energy:    5.412690;  244.000000 electrons
         Band energy:-0.448336E+07;  BLOECHL correction: -863.373409
       DOS:  cpu time      0.1700: real time      0.1701
    CHARGE:  cpu time      0.3553: real time      0.3558
    MIXING:  cpu time      0.0151: real time      0.0152
    --------------------------------------------
      LOOP:  cpu time     10.1051: real time     10.1174

 eigenvalue-minimisations  : 15736
 total energy-change (2. order) :-0.1853464E+07  (-0.4010039E+07)
 number of electron     217.5576891 magnetization     -38.9062394
 augmentation part       68.3012731 magnetization     -24.8542505

 Broyden mixing:
  rms(total) = 0.50381E+02    rms(broyden)= 0.50381E+02
  rms(prec ) = 0.51057E+02
  weight for this iteration     100.00

 eigenvalues of (default mixing * dielectric matrix)
  average eigenvalue GAMMA=   0.1766
  0.6431  0.5030  0.5030  0.4589  0.3884  0.3884  0.3633  0.3633  0.3546  0.3546
  0.1723  0.1723  0.2428  0.2428  0.2364  0.2364  0.2074  0.2074  0.1671  0.1671
  0.1535  0.1468  0.1043  0.1043  0.0920  0.0920  0.0918  0.0918  0.0662  0.0353
  0.0352  0.0352  0.0350  0.0350  0.0247  0.0143  0.0139  0.0139  0.0107  0.0107
  0.0061  0.0061  0.0022

 Free energy of the ion-electron system (eV)
  ---------------------------------------------------
  alpha Z        PSCENC =      1282.63200635
  Ewald energy   TEWEN  =    -19727.43821509
  -Hartree energ DENC   =    -11813.87716452
  -exchange      EXHF   =         0.00000000
  -V(xc)+E(xc)   XCENC  =       811.33547166
  PAW double counting   =     37435.28278940   -38684.61835527
  entropy T*S    EENTRO =         0.00000000
  eigenvalues    EBANDS =  -4483361.87308134
  atomic energy  EATOM  =     32889.47341916
  Solvation  Ediel_sol  =         0.00000000
  ---------------------------------------------------
  free energy    TOTEN  =  -4481169.08312963 eV

  energy without entropy = -4481169.08312963  energy(sigma->0) = -4481169.08312963


--------------------------------------------------------------------------------------------------------




--------------------------------------- Iteration      1( 779)  ---------------------------------------


    POTLOK:  cpu time      0.0114: real time      0.0123
    SETDIJ:  cpu time      2.7089: real time      2.7109
     EDDAV:  cpu time      7.1849: real time      7.1966
 BZINTS: Fermi energy:    5.462047;  244.000000 electrons
         Band energy:-0.126999E+07;  BLOECHL correction: -294.041004
       DOS:  cpu time      0.1820: real time      0.1821
    CHARGE:  cpu time      0.3535: real time      0.3538
    MIXING:  cpu time      0.0152: real time      0.0151
    --------------------------------------------
      LOOP:  cpu time     10.4559: real time     10.4709

 eigenvalue-minimisations  : 16680
 total energy-change (2. order) : 0.3213371E+07  (-0.9775791E+06)
 number of electron     219.2553468 magnetization     -39.2781155
 augmentation part       69.9593194 magnetization     -23.6682073

 Broyden mixing:
  rms(total) = 0.47638E+02    rms(broyden)= 0.47638E+02
  rms(prec ) = 0.48341E+02
  weight for this iteration     100.00

 eigenvalues of (default mixing * dielectric matrix)
  average eigenvalue GAMMA=   0.1749
  0.6456  0.4851  0.4851  0.4632  0.3903  0.3903  0.3680  0.3680  0.3525  0.3525
  0.2612  0.2612  0.2505  0.2505  0.1685  0.1685  0.2103  0.2103  0.1627  0.1508
  0.1508  0.1136  0.1136  0.0927  0.0927  0.1044  0.1044  0.0814  0.0814  0.0562
  0.0562  0.0395  0.0395  0.0336  0.0203  0.0203  0.0274  0.0142  0.0208  0.0140
  0.0140  0.0008  0.0045  0.0045

 Free energy of the ion-electron system (eV)
  ---------------------------------------------------
  alpha Z        PSCENC =      1282.63200635
  Ewald energy   TEWEN  =    -19727.43821509
  -Hartree energ DENC   =    -11812.03933139
  -exchange      EXHF   =         0.00000000
  -V(xc)+E(xc)   XCENC  =       810.66607617
  PAW double counting   =     37435.43015927   -38684.45848358
  entropy T*S    EENTRO =         0.00000000
  eigenvalues    EBANDS =  -1269992.27238086
  atomic energy  EATOM  =     32889.47341916
  Solvation  Ediel_sol  =         0.00000000
  ---------------------------------------------------
  free energy    TOTEN  =  -1267798.00674997 eV

  energy without entropy = -1267798.00674997  energy(sigma->0) = -1267798.00674997


--------------------------------------------------------------------------------------------------------




--------------------------------------- Iteration      1( 780)  ---------------------------------------


    POTLOK:  cpu time      0.0114: real time      0.0120
    SETDIJ:  cpu time      2.7117: real time      2.7133
     EDDAV:  cpu time      6.9095: real time      6.9169
 BZINTS: Fermi energy:    5.365404;  244.000000 electrons
         Band energy:-0.115849E+07;  BLOECHL correction: -270.904549
       DOS:  cpu time      0.1703: real time      0.1703
    CHARGE:  cpu time      0.3719: real time      0.3723
    MIXING:  cpu time      0.0174: real time      0.0174
    --------------------------------------------
      LOOP:  cpu time     10.1923: real time     10.2022

 eigenvalue-minimisations  : 15784
 total energy-change (2. order) : 0.1115035E+06  (-0.8350922E+06)
 number of electron     219.9341081 magnetization     -39.5404858
 augmentation part       70.0250744 magnetization     -24.4481852

 Broyden mixing:
  rms(total) = 0.47407E+02    rms(broyden)= 0.47407E+02
  rms(prec ) = 0.48005E+02
  weight for this iteration     100.00

 eigenvalues of (default mixing * dielectric matrix)
  average eigenvalue GAMMA=   0.1751
  0.6369  0.4849  0.4849  0.4591  0.3706  0.3706  0.3506  0.3506  0.3001  0.3001
  0.2680  0.2680  0.1796  0.1796  0.1784  0.1784  0.1932  0.1932  0.1146  0.1146
  0.1302  0.1302  0.1176  0.1176  0.0543  0.0657  0.0657  0.0808  0.0675  0.0675
  0.0306  0.0216  0.0216  0.0195  0.0107  0.0072  0.0072  0.0054  0.0054  0.0017

 Free energy of the ion-electron system (eV)
  ---------------------------------------------------
  alpha Z        PSCENC =      1282.63200635
  Ewald energy   TEWEN  =    -19727.43821509
  -Hartree energ DENC   =    -11811.24627567
  -exchange      EXHF   =         0.00000000
  -V(xc)+E(xc)   XCENC  =       814.69455987
  PAW double counting   =     37348.01634520   -38604.21040944
  entropy T*S    EENTRO =         0.00000000
  eigenvalues    EBANDS =  -1158486.37900077
  atomic energy  EATOM  =     32889.47341916
  Solvation  Ediel_sol  =         0.00000000
  ---------------------------------------------------
  free energy    TOTEN  =  -1156294.45757039 eV

  energy without entropy = -1156294.45757039  energy(sigma->0) = -1156294.45757039


--------------------------------------------------------------------------------------------------------




--------------------------------------- Iteration      1( 781)  ---------------------------------------


    POTLOK:  cpu time      0.0119: real time      0.0123
    SETDIJ:  cpu time      2.7856: real time      2.7869
     EDDAV:  cpu time      7.1325: real time      7.1362
 BZINTS: Fermi energy:    5.597679;  244.000000 electrons
         Band energy:-0.120967E+07;  BLOECHL correction: -261.400747
       DOS:  cpu time      0.1614: real time      0.1614
    CHARGE:  cpu time      0.3491: real time      0.3492
    MIXING:  cpu time      0.0137: real time      0.0137
    --------------------------------------------
      LOOP:  cpu time     10.4541: real time     10.4598

 eigenvalue-minimisations  : 16408
 total energy-change (2. order) :-0.5112991E+05  (-0.7520810E+06)
 number of electron     222.2073084 magnetization     -39.8286627
 augmentation part       67.5386549 magnetization     -23.7168658

 Broyden mixing:
  rms(total) = 0.49342E+02    rms(broyden)= 0.49342E+02
  rms(prec ) = 0.50672E+02
  weight for this iteration     100.00

 eigenvalues of (default mixing * dielectric matrix)
  average eigenvalue GAMMA=   0.1807
  0.6353  0.4846  0.4846  0.4584  0.4124  0.4124  0.3687  0.3687  0.2899  0.2899
  0.2716  0.2716  0.2742  0.1832  0.1832  0.2058  0.2058  0.1776  0.1776  0.1117
  0.1117  0.1307  0.1307  0.1142  0.1142  0.0563  0.0903  0.0681  0.0681  0.0622
  0.0622  0.0306  0.0220  0.0220  0.0208  0.0083  0.0076  0.0076  0.0056  0.0056
  0.0017

 Free energy of the ion-electron system (eV)
  ---------------------------------------------------
  alpha Z        PSCENC =      1282.63200635
  Ewald energy   TEWEN  =    -19727.43821509
  -Hartree energ DENC   =    -11739.91530137
  -exchange      EXHF   =         0.00000000
  -V(xc)+E(xc)   XCENC  =       820.07222187
  PAW double counting   =     36857.51327743   -38136.81991394
  entropy T*S    EENTRO =         0.00000000
  eigenvalues    EBANDS =  -1209669.88351863
  atomic energy  EATOM  =     32889.47341916
  Solvation  Ediel_sol  =         0.00000000
  ---------------------------------------------------
  free energy    TOTEN  =  -1207424.36602422 eV

  energy without entropy = -1207424.36602422  energy(sigma->0) = -1207424.36602422


--------------------------------------------------------------------------------------------------------




--------------------------------------- Iteration      1( 782)  ---------------------------------------


    POTLOK:  cpu time      0.0113: real time      0.0120
    SETDIJ:  cpu time      2.7143: real time      2.7160
     EDDAV:  cpu time      7.0303: real time      7.0356
 BZINTS: Fermi energy:    5.681448;  244.000000 electrons
         Band energy:-0.274706E+07;  BLOECHL correction: -673.043760
       DOS:  cpu time      0.1703: real time      0.1704
    CHARGE:  cpu time      0.3585: real time      0.3587
    MIXING:  cpu time      0.0138: real time      0.0138
    --------------------------------------------
      LOOP:  cpu time     10.2985: real time     10.3065

 eigenvalue-minimisations  : 16128
 total energy-change (2. order) :-0.1537452E+07  (-0.2185659E+07)
 number of electron     221.7182181 magnetization     -39.8072731
 augmentation part       65.8077343 magnetization     -24.8294200

 Broyden mixing:
  rms(total) = 0.56566E+02    rms(broyden)= 0.56566E+02
  rms(prec ) = 0.57187E+02
  weight for this iteration     100.00

 eigenvalues of (default mixing * dielectric matrix)
  average eigenvalue GAMMA=   0.1815
  0.5822  0.5115  0.5115  0.4508  0.4404  0.4404  0.3578  0.3578  0.3015  0.3015
  0.2522  0.2522  0.2515  0.2515  0.1725  0.1725  0.1969  0.1969  0.1723  0.1723
  0.1183  0.1183  0.1298  0.1298  0.0648  0.1204  0.1204  0.0957  0.0634  0.0634
  0.0581  0.0581  0.0305  0.0239  0.0239  0.0264  0.0093  0.0093  0.0081  0.0018
  0.0018  0.0002

 Free energy of the ion-electron system (eV)
  ---------------------------------------------------
  alpha Z        PSCENC =      1282.63200635
  Ewald energy   TEWEN  =    -19727.43821509
  -Hartree energ DENC   =    -11796.92239314
  -exchange      EXHF   =         0.00000000
  -V(xc)+E(xc)   XCENC  =       822.46608016
  PAW double counting   =     37739.42347490   -39027.99716816
  entropy T*S    EENTRO =         0.00000000
  eigenvalues    EBANDS =  -2747058.30962646
  atomic energy  EATOM  =     32889.47341916
  Solvation  Ediel_sol  =         0.00000000
  ---------------------------------------------------
  free energy    TOTEN  =  -2744876.67242225 eV

  energy without entropy = -2744876.67242225  energy(sigma->0) = -2744876.67242225


--------------------------------------------------------------------------------------------------------




--------------------------------------- Iteration      1( 783)  ---------------------------------------


    POTLOK:  cpu time      0.0109: real time      0.0119
    SETDIJ:  cpu time      2.7237: real time      2.7253
 -----------------------------------------------------------------------------
|                                                                             |
|     EEEEEEE  RRRRRR   RRRRRR   OOOOOOO  RRRRRR      ###     ###     ###     |
|     E        R     R  R     R  O     O  R     R     ###     ###     ###     |
|     E        R     R  R     R  O     O  R     R     ###     ###     ###     |
|     EEEEE    RRRRRR   RRRRRR   O     O  RRRRRR       #       #       #      |
|     E        R   R    R   R    O     O  R   R                               |
|     E        R    R   R    R   O     O  R    R      ###     ###     ###     |
|     EEEEEEE  R     R  R     R  OOOOOOO  R     R     ###     ###     ###     |
|                                                                             |
|     Error EDDDAV: Call to ZHEGV failed. Returncode = 1300 2 16              |
|                                                                             |
|       ---->  I REFUSE TO CONTINUE WITH THIS SICK JOB ... BYE!!! <----       |
|                                                                             |
 -----------------------------------------------------------------------------

