 vasp.6.3.2 27Jun22 (build Jul  3 2023 11:46:21) complex                         
 executed on    LinuxNV_CrayMPICH date 2024.05.12  16:18:15
 running on    4 total cores
 distrk:  each k-point on    4 cores,    1 groups
 distr:  one band on NCORE=   1 cores,    4 groups


--------------------------------------------------------------------------------------------------------


 INCAR:
   ADDGRID = True
   ALGO = Normal
   EDIFF = 0.00095
   ENCUT = 520.0
   IBRION = -1
   ICHARG = 0
   ISIF = 3
   ISMEAR = -5
   ISPIN = 2
   ISTART = 1
   KPOINT_BSE = -1 0 0 0
   LAECHG = True
   LASPH = True
   LCHARG = True
   LELF = True
   LORBIT = 11
   LREAL = Auto
   LVHAR = True
   LWAVE = False
   MAGMOM = 1*7.0 12*5.0 6*0.6
   NELM = 1000
   NUPDOWN = 10
   NSW = 0
   PREC = accurate
   SIGMA = 0.05

 POTCAR:    PAW_PBE Eu 23Dec2003                  
 POTCAR:    PAW_PBE Ni_pv 06Sep2000               
 POTCAR:    PAW_PBE B 06Sep2000                   
 POTCAR:    PAW_PBE Eu 23Dec2003                  
   SHA256 =  ed303d27e7c5191953f9b15539336e6f36d9037c1d2e92e80c13d733697cb93d Eu/POTCAR             
   COPYR  = (c) Copyright 23Dec2003 Georg Kresse                                                    
   COPYR  = This file is part of the software VASP. Any use, copying, and all other rights are regul
   COPYR  = If you do not have a valid VASP license, you may not use, copy or distribute this file. 
   VRHFIN =Eu : [core=Kr4d]                                                                         
   LEXCH  = PE                                                                                      
   EATOM  =  2619.8085 eV,  192.5505 Ry                                                             
                                                                                                    
   TITEL  = PAW_PBE Eu 23Dec2003                                                                    
   LULTRA =        F    use ultrasoft PP ?                                                          
   IUNSCR =        1    unscreen: 0-lin 1-nonlin 2-no                                               
   RPACOR =    2.300    partial core radius                                                         
   POMASS =  151.965; ZVAL   =   17.000    mass and valenz                                          
   RCORE  =    2.800    outmost cutoff radius                                                       
   RWIGS  =    2.800; RWIGS  =    1.482    wigner-seitz radius (au A)                               
   ENMAX  =  249.668; ENMIN  =  187.251 eV                                                          
   RCLOC  =    2.308    cutoff for local pot                                                        
   LCOR   =        T    correct aug charges                                                         
   LPAW   =        T    paw PP                                                                      
   EAUG   =  549.628                                                                                
   DEXC   =    0.000                                                                                
   RMAX   =    2.870    core radius for proj-oper                                                   
   RAUG   =    1.300    factor for augmentation sphere                                              
   RDEP   =    2.887    radius for radial grids                                                     
   RDEPT  =    2.221    core radius for aug-charge                                                  
                                                                                                    
   Atomic configuration                                                                             
   14 entries                                                                                       
     n  l   j            E        occ.                                                              
     1  0  0.50    -48354.7667   2.0000                                                             
     2  0  0.50     -7939.6472   2.0000                                                             
     2  1  1.50     -7072.6637   6.0000                                                             
     3  0  0.50     -1747.1875   2.0000                                                             
     3  1  1.50     -1477.5221   6.0000                                                             
     3  2  2.50     -1117.4686  10.0000                                                             
     4  0  0.50      -346.8682   2.0000                                                             
     4  1  1.50      -258.1962   6.0000                                                             
     4  2  2.50      -134.7724  10.0000                                                             
     5  0  0.50       -44.6510   2.0000                                                             
     6  0  0.50        -3.6227   2.0000                                                             
     5  1  1.50       -23.7639   6.0000                                                             
     5  2  2.50        -1.3130   0.0000                                                             
     4  3  2.50        -2.7310   7.0000                                                             
   Description                                                                                      
     l       E           TYP  RCUT    TYP  RCUT                                                     
     0    -44.6510453     23  2.400                                                                 
     0     -3.6226685     23  2.400                                                                 
     1    -23.7638687     23  2.400                                                                 
     1     27.2116520     23  2.400                                                                 
     2     -1.3129622     23  2.500                                                                 
     2     13.6058260     23  2.500                                                                 
     3     -2.7309948     23  2.800                                                                 
     3     -3.4014565     23  2.800                                                                 
  local pseudopotential read in
  partial core-charges read in
  partial kinetic energy density read in
  atomic valenz-charges read in
  non local Contribution for L=            0  read in
    real space projection operators read in
  non local Contribution for L=            0  read in
    real space projection operators read in
  non local Contribution for L=            1  read in
    real space projection operators read in
  non local Contribution for L=            1  read in
    real space projection operators read in
  non local Contribution for L=            2  read in
    real space projection operators read in
  non local Contribution for L=            2  read in
    real space projection operators read in
  non local Contribution for L=            3  read in
    real space projection operators read in
  non local Contribution for L=            3  read in
    real space projection operators read in
    PAW grid and wavefunctions read in
 
   number of l-projection  operators is LMAX  =            8
   number of lm-projection operators is LMMAX =           32
 
 POTCAR:    PAW_PBE Ni_pv 06Sep2000               
   SHA256 =  368cd815a19284a5fda64519f43fef792dad8376deb9e2da41aae78b997dc50e Ni_pv/POTCAR          
   COPYR  = (c) Copyright 06Sep2000 Georg Kresse                                                    
   COPYR  = This file is part of the software VASP. Any use, copying, and all other rights are regul
   COPYR  = If you do not have a valid VASP license, you may not use, copy or distribute this file. 
   VRHFIN =Ni:                                                                                      
   LEXCH  = PE                                                                                      
   EATOM  =  3501.1230 eV,  257.3253 Ry                                                             
                                                                                                    
   TITEL  = PAW_PBE Ni_pv 06Sep2000                                                                 
   LULTRA =        F    use ultrasoft PP ?                                                          
   IUNSCR =        1    unscreen: 0-lin 1-nonlin 2-no                                               
   RPACOR =    1.500    partial core radius                                                         
   POMASS =   58.690; ZVAL   =   16.000    mass and valenz                                          
   RCORE  =    2.000    outmost cutoff radius                                                       
   RWIGS  =    2.000; RWIGS  =    1.058    wigner-seitz radius (au A)                               
   ENMAX  =  367.986; ENMIN  =  275.989 eV                                                          
   RCLOC  =    1.301    cutoff for local pot                                                        
   LCOR   =        T    correct aug charges                                                         
   LPAW   =        T    paw PP                                                                      
   EAUG   =  703.443                                                                                
   DEXC   =    0.000                                                                                
   RMAX   =    2.041    core radius for proj-oper                                                   
   RAUG   =    1.300    factor for augmentation sphere                                              
   RDEP   =    2.103    radius for radial grids                                                     
   RDEPT  =    1.618    core radius for aug-charge                                                  
                                                                                                    
   Atomic configuration                                                                             
    8 entries                                                                                       
     n  l   j            E        occ.                                                              
     1  0  0.50     -8206.4253   2.0000                                                             
     2  0  0.50      -976.1748   2.0000                                                             
     2  1  1.50      -839.0571   6.0000                                                             
     3  0  0.50      -105.9991   2.0000                                                             
     3  1  1.50       -66.4603   6.0000                                                             
     3  2  2.50        -4.6458   9.0000                                                             
     4  0  0.50        -4.4926   1.0000                                                             
     4  3  2.50        -1.3606   0.0000                                                             
   Description                                                                                      
     l       E           TYP  RCUT    TYP  RCUT                                                     
     1    -66.4602962     23  1.700                                                                 
     1     -1.3605826     23  1.700                                                                 
     2     -4.6457867     23  2.000                                                                 
     2     -6.0063693     23  2.000                                                                 
     0     -4.4925576     23  1.900                                                                 
     0     16.3626226     23  1.900                                                                 
  local pseudopotential read in
  partial core-charges read in
  partial kinetic energy density read in
  atomic valenz-charges read in
  non local Contribution for L=            1  read in
    real space projection operators read in
  non local Contribution for L=            1  read in
    real space projection operators read in
  non local Contribution for L=            2  read in
    real space projection operators read in
  non local Contribution for L=            2  read in
    real space projection operators read in
  non local Contribution for L=            0  read in
    real space projection operators read in
  non local Contribution for L=            0  read in
    real space projection operators read in
    PAW grid and wavefunctions read in
 
   number of l-projection  operators is LMAX  =            6
   number of lm-projection operators is LMMAX =           18
 
 POTCAR:    PAW_PBE B 06Sep2000                   
   SHA256 =  a32ced30f5ae56fd4d10b4325ff17eb3e4e38ee0f4288bc219fb012fddfa6e97 B/POTCAR              
   COPYR  = (c) Copyright 06Sep2000 Georg Kresse                                                    
   COPYR  = This file is part of the software VASP. Any use, copying, and all other rights are regul
   COPYR  = If you do not have a valid VASP license, you may not use, copy or distribute this file. 
   VRHFIN =B: s2p1                                                                                  
   LEXCH  = PE                                                                                      
   EATOM  =    71.1703 eV,    5.2309 Ry                                                             
                                                                                                    
   TITEL  = PAW_PBE B 06Sep2000                                                                     
   LULTRA =        F    use ultrasoft PP ?                                                          
   IUNSCR =        1    unscreen: 0-lin 1-nonlin 2-no                                               
   RPACOR =    1.200    partial core radius                                                         
   POMASS =   10.811; ZVAL   =    3.000    mass and valenz                                          
   RCORE  =    1.700    outmost cutoff radius                                                       
   RWIGS  =    1.710; RWIGS  =    0.905    wigner-seitz radius (au A)                               
   ENMAX  =  318.614; ENMIN  =  238.960 eV                                                          
   ICORE  =        2    local potential                                                             
   LCOR   =        T    correct aug charges                                                         
   LPAW   =        T    paw PP                                                                      
   EAUG   =  535.514                                                                                
   DEXC   =    0.000                                                                                
   RMAX   =    1.732    core radius for proj-oper                                                   
   RAUG   =    1.300    factor for augmentation sphere                                              
   RDEP   =    1.757    radius for radial grids                                                     
   RDEPT  =    1.436    core radius for aug-charge                                                  
                                                                                                    
   Atomic configuration                                                                             
    4 entries                                                                                       
     n  l   j            E        occ.                                                              
     1  0  0.50      -180.5896   2.0000                                                             
     2  0  0.50        -9.4431   2.0000                                                             
     2  1  0.50        -3.6068   1.0000                                                             
     3  2  1.50        -4.0817   0.0000                                                             
   Description                                                                                      
     l       E           TYP  RCUT    TYP  RCUT                                                     
     0     -9.4430752     23  1.500                                                                 
     0      0.8675899     23  1.500                                                                 
     1     -3.6067955     23  1.700                                                                 
     1      6.1086146     23  1.700                                                                 
     2     -4.0817478      7  1.700                                                                 
  local pseudopotential read in
  partial core-charges read in
  partial kinetic energy density read in
  atomic valenz-charges read in
  non local Contribution for L=            0  read in
    real space projection operators read in
  non local Contribution for L=            0  read in
    real space projection operators read in
  non local Contribution for L=            1  read in
    real space projection operators read in
  non local Contribution for L=            1  read in
    real space projection operators read in
    PAW grid and wavefunctions read in
 
   number of l-projection  operators is LMAX  =            4
   number of lm-projection operators is LMMAX =            8
 
 Optimization of the real space projectors (new method)

 maximal supplied QI-value         = 13.42
 optimisation between [QCUT,QGAM] = [ 11.67, 23.35] = [ 38.16,152.62] Ry 
 Optimized for a Real-space Cutoff    1.63 Angstroem

   l    n(q)    QCUT    max X(q) W(low)/X(q) W(high)/X(q)  e(spline) 
   0     11    11.673    10.400    0.14E-04    0.18E-05    0.24E-07
   0     11    11.673    10.768    0.21E-04    0.32E-05    0.49E-07
   1     11    11.673     4.094    0.40E-05    0.13E-04    0.93E-07
   1     11    11.673     4.009    0.11E-04    0.46E-04    0.33E-06
   2     10    11.673    29.030    0.79E-04    0.60E-04    0.70E-06
   2     10    11.673    19.941    0.80E-04    0.60E-04    0.71E-06
   3     10    11.673    88.889    0.23E-03    0.29E-03    0.30E-06
   3     10    11.673    76.102    0.23E-03    0.30E-03    0.30E-06
 Optimization of the real space projectors (new method)

 maximal supplied QI-value         = 18.90
 optimisation between [QCUT,QGAM] = [ 11.53, 23.24] = [ 37.21,151.29] Ry 
 Optimized for a Real-space Cutoff    1.36 Angstroem

   l    n(q)    QCUT    max X(q) W(low)/X(q) W(high)/X(q)  e(spline) 
   1      9    11.527     2.836    0.16E-04    0.30E-04    0.95E-07
   1      9    11.527     4.023    0.73E-04    0.81E-04    0.21E-06
   2      9    11.527    73.368    0.15E-03    0.29E-03    0.28E-06
   2      9    11.527    69.010    0.15E-03    0.29E-03    0.29E-06
   0      9    11.527    54.797    0.43E-04    0.28E-04    0.85E-07
   0      9    11.527    24.266    0.33E-04    0.24E-04    0.75E-07
 Optimization of the real space projectors (new method)

 maximal supplied QI-value         = 22.11
 optimisation between [QCUT,QGAM] = [ 11.50, 23.22] = [ 37.02,150.92] Ry 
 Optimized for a Real-space Cutoff    1.21 Angstroem

   l    n(q)    QCUT    max X(q) W(low)/X(q) W(high)/X(q)  e(spline) 
   0      8    11.497    53.033    0.18E-03    0.30E-03    0.10E-06
   0      8    11.497    34.740    0.17E-03    0.29E-03    0.10E-06
   1      8    11.497    30.949    0.20E-03    0.12E-03    0.21E-06
   1      8    11.497    19.518    0.18E-03    0.11E-03    0.19E-06
  PAW_PBE Eu 23Dec2003                  :
 energy of atom  1       EATOM=-2619.8085
 kinetic energy error for atom=    0.0015 (will be added to EATOM!!)
  PAW_PBE Ni_pv 06Sep2000               :
 energy of atom  2       EATOM=-3501.1230
 kinetic energy error for atom=    0.0575 (will be added to EATOM!!)
  PAW_PBE B 06Sep2000                   :
 energy of atom  3       EATOM=  -71.1703
 kinetic energy error for atom=    0.0011 (will be added to EATOM!!)
 
 
 POSCAR: Eu1 Ni12 B6
  positions in direct lattice
  No initial velocities read in
 exchange correlation table for  LEXCH =        8
   RHO(1)=    0.500       N(1)  =     2000
   RHO(2)=  100.500       N(2)  =     4000

 VTST: version 4.2, (08/11/21)

 CHAIN: initializing optimizer
 
 OPT: Using VASP Dynamics algorithm
 CHAIN: Read ICHAIN             0
 
 POSCAR: Eu1 Ni12 B6
  positions in direct lattice
  No initial velocities read in
 


--------------------------------------------------------------------------------------------------------


 ion  position               nearest neighbor table
   1  0.000  0.000  0.000-
   2  0.812  0.542  0.542-  15 2.07  19 2.07  17 2.09  12 2.46   9 2.46   5 2.50   4 2.50
   3  0.500  0.869  0.131-  17 2.04  16 2.04  14 2.10  15 2.10   8 2.50   7 2.50  12 2.50
   4  0.131  0.500  0.869-  19 2.04  14 2.04  16 2.10  18 2.10   6 2.50   9 2.50   2 2.50
   5  0.131  0.869  0.500-  18 2.04  15 2.04  16 2.10  14 2.10  10 2.50   2 2.50  12 2.50
   6  0.869  0.500  0.131-  14 2.04  19 2.04  17 2.10  15 2.10   4 2.50   7 2.50  11 2.50
   7  0.542  0.542  0.812-  16 2.07  19 2.07  18 2.09  12 2.46  11 2.46   6 2.50   3 2.50
   8  0.500  0.131  0.869-  16 2.04  17 2.04  19 2.10  18 2.10   3 2.50   9 2.50  13 2.50
   9  0.458  0.458  0.188-  17 2.07  14 2.07  15 2.09  13 2.46   2 2.46   4 2.50   8 2.50
  10  0.869  0.131  0.500-  15 2.04  18 2.04  17 2.10  19 2.10   5 2.50  11 2.50  13 2.50
  11  0.188  0.458  0.458-  18 2.07  14 2.07  16 2.09  13 2.46   7 2.46  10 2.50   6 2.50
  12  0.458  0.188  0.458-  18 2.07  17 2.07  19 2.09   2 2.46   7 2.46   5 2.50   3 2.50
  13  0.542  0.812  0.542-  15 2.07  16 2.07  14 2.09  11 2.46   9 2.46  10 2.50   8 2.50
  14  0.234  0.663  0.234-   6 2.04   4 2.04   9 2.07  11 2.07  13 2.09   3 2.10   5 2.10
  15  0.766  0.766  0.337-  10 2.04   5 2.04   2 2.07  13 2.07   9 2.09   6 2.10   3 2.10
  16  0.337  0.766  0.766-   8 2.04   3 2.04   7 2.07  13 2.07  11 2.09   4 2.10   5 2.10
  17  0.663  0.234  0.234-   3 2.04   8 2.04   9 2.07  12 2.07   2 2.09   6 2.10  10 2.10
  18  0.234  0.234  0.663-   5 2.04  10 2.04  11 2.07  12 2.07   7 2.09   8 2.10   4 2.10
  19  0.766  0.337  0.766-   4 2.04   6 2.04   7 2.07   2 2.07  12 2.09   8 2.10  10 2.10
 
  LATTYP: Found a trigonal (rhomboedric) cell.
 ALAT       =     6.0350565924
 COS(alpha) =    -0.2471586020
  
  Lattice vectors:
  
 A1 = (   3.7026960000,  -4.7657050000,   0.0000000000)
 A2 = (   3.7026960000,   4.7657050000,   0.0000000000)
 A3 = (  -2.4311980000,   0.0000000000,   5.5236930000)


Analysis of symmetry for initial positions (statically):
=====================================================================
 Subroutine PRICEL returns:
 Original cell was already a primitive cell.
 

 Routine SETGRP: Setting up the symmetry group for a 
 trigonal (rhombohedral) supercell.


 Subroutine GETGRP returns: Found 12 space group operations
 (whereof 12 operations were pure point group operations)
 out of a pool of 12 trial point group operations.


The static configuration has the point symmetry D_3d.


Analysis of symmetry for dynamics (positions and initial velocities):
=====================================================================
 Subroutine PRICEL returns:
 Original cell was already a primitive cell.
 

 Routine SETGRP: Setting up the symmetry group for a 
 trigonal (rhombohedral) supercell.


 Subroutine GETGRP returns: Found 12 space group operations
 (whereof 12 operations were pure point group operations)
 out of a pool of 12 trial point group operations.


The dynamic configuration has the point symmetry D_3d.


Analysis of structural, dynamic, and magnetic symmetry:
=====================================================================
 Subroutine PRICEL returns:
 Original cell was already a primitive cell.
 

 Routine SETGRP: Setting up the symmetry group for a 
 trigonal (rhombohedral) supercell.


 Subroutine GETGRP returns: Found 12 space group operations
 (whereof 12 operations were pure point group operations)
 out of a pool of 12 trial point group operations.


The overall configuration has the point symmetry D_3d.


 Subroutine INISYM returns: Found 12 space group operations
 (whereof 12 operations are pure point group operations),
 and found     1 'primitive' translations


----------------------------------------------------------------------------------------

                                     Primitive cell                                     

  volume of cell :     194.9417

  direct lattice vectors                    reciprocal lattice vectors
     3.702696000 -4.765705000  0.000000000     0.135036741 -0.104916272  0.059435065
     3.702696000  4.765705000  0.000000000     0.135036741  0.104916272  0.059435065
    -2.431198000  0.000000000  5.523693000    -0.000000000  0.000000000  0.181038302

  length of vectors
     6.035056074  6.035056074  6.035056592     0.181038317  0.181038317  0.181038302

  position of ions in fractional coordinates (direct lattice)
     0.000000000  0.000000000  0.000000000
     0.812445000  0.541976000  0.541976000
     0.500000000  0.868864000  0.131136000
     0.131136000  0.500000000  0.868864000
     0.131136000  0.868864000  0.500000000
     0.868864000  0.500000000  0.131136000
     0.541976000  0.541976000  0.812445000
     0.500000000  0.131136000  0.868864000
     0.458024000  0.458024000  0.187555000
     0.868864000  0.131136000  0.500000000
     0.187555000  0.458024000  0.458024000
     0.458024000  0.187555000  0.458024000
     0.541976000  0.812445000  0.541976000
     0.233767000  0.662920000  0.233767000
     0.766233000  0.766233000  0.337080000
     0.337080000  0.766233000  0.766233000
     0.662920000  0.233767000  0.233767000
     0.233767000  0.233767000  0.662920000
     0.766233000  0.337080000  0.766233000

  ion indices of the primitive-cell ions
   primitive index   ion index
                 1           1
                 2           2
                 3           3
                 4           4
                 5           5
                 6           6
                 7           7
                 8           8
                 9           9
                10          10
                11          11
                12          12
                13          13
                14          14
                15          15
                16          16
                17          17
                18          18
                19          19

----------------------------------------------------------------------------------------

 
 
 KPOINTS: Kpoints from vasprun.xml                

Automatic generation of k-mesh.
 Grid dimensions read from file:
 generate k-points for:    5    5    5

 Generating k-lattice:

  Cartesian coordinates                     Fractional coordinates (reciprocal lattice)
     0.027007348 -0.020983254  0.011887013     0.200000000  0.000000000 -0.000000000
     0.027007348  0.020983254  0.011887013     0.000000000  0.200000000 -0.000000000
    -0.000000000  0.000000000  0.036207660     0.000000000  0.000000000  0.200000000

  Length of vectors
     0.036207663  0.036207663  0.036207660

  Shift w.r.t. Gamma in fractional coordinates (k-lattice)
     0.000000000  0.000000000  0.000000000

 TETIRR: Found    174 inequivalent tetrahedra from      750
 
 Subroutine IBZKPT returns following result:
 ===========================================
 
 Found     19 irreducible k-points:
 
 Following reciprocal coordinates:
            Coordinates               Weight
  0.000000  0.000000  0.000000      1.000000
  0.200000  0.000000  0.000000      6.000000
  0.400000  0.000000  0.000000      6.000000
  0.200000  0.200000  0.000000      6.000000
  0.400000  0.200000  0.000000     12.000000
 -0.400000  0.200000  0.000000     12.000000
 -0.200000  0.200000  0.000000      6.000000
  0.400000  0.400000  0.000000      6.000000
 -0.400000  0.400000  0.000000      6.000000
  0.200000  0.200000  0.200000      2.000000
  0.400000  0.200000  0.200000      6.000000
 -0.400000  0.200000  0.200000      6.000000
 -0.200000  0.200000  0.200000      6.000000
  0.400000  0.400000  0.200000      6.000000
 -0.400000  0.400000  0.200000     12.000000
 -0.200000  0.400000  0.200000     12.000000
 -0.400000 -0.400000  0.200000      6.000000
  0.400000  0.400000  0.400000      2.000000
 -0.400000  0.400000  0.400000      6.000000
 
 Following cartesian coordinates:
            Coordinates               Weight
  0.000000  0.000000  0.000000      1.000000
  0.027007 -0.020983  0.011887      6.000000
  0.054015 -0.041967  0.023774      6.000000
  0.054015  0.000000  0.023774      6.000000
  0.081022 -0.020983  0.035661     12.000000
 -0.027007  0.062950 -0.011887     12.000000
  0.000000  0.041967  0.000000      6.000000
  0.108029  0.000000  0.047548      6.000000
  0.000000  0.083933  0.000000      6.000000
  0.054015  0.000000  0.059982      2.000000
  0.081022 -0.020983  0.071869      6.000000
 -0.027007  0.062950  0.024321      6.000000
  0.000000  0.041967  0.036208      6.000000
  0.108029  0.000000  0.083756      6.000000
  0.000000  0.083933  0.036208     12.000000
  0.027007  0.062950  0.048095     12.000000
 -0.108029  0.000000 -0.011340      6.000000
  0.108029  0.000000  0.119963      2.000000
  0.000000  0.083933  0.072415      6.000000
 


--------------------------------------------------------------------------------------------------------




 Dimension of arrays:
   k-points           NKPTS =     19   k-points in BZ     NKDIM =     19   number of bands    NBANDS=    172
   number of dos      NEDOS =    301   number of ions     NIONS =     19
   non local maximal  LDIM  =      8   non local SUM 2l+1 LMDIM =     32
   total plane-waves  NPLWV = 110592
   max r-space proj   IRMAX =  10288   max aug-charges    IRDMAX= 259625
   dimension x,y,z NGX =    48 NGY =   48 NGZ =   48
   dimension x,y,z NGXF=    96 NGYF=   96 NGZF=   96
   support grid    NGXF=   192 NGYF=  192 NGZF=  192
   ions per type =               1  12   6
   NGX,Y,Z   is equivalent  to a cutoff of  13.22, 13.22, 13.22 a.u.
   NGXF,Y,Z  is equivalent  to a cutoff of  26.44, 26.44, 26.44 a.u.

 SYSTEM =  unknown system                          
 POSCAR =  Eu1 Ni12 B6                             

 Startparameter for this run:
   NWRITE =      2    write-flag & timer
   PREC   = accura    normal or accurate (medium, high low for compatibility)
   ISTART =      0    job   : 0-new  1-cont  2-samecut
   ICHARG =      2    charge: 1-file 2-atom 10-const
   ISPIN  =      2    spin polarized calculation?
   LNONCOLLINEAR =      F non collinear calculations
   LSORBIT =      F    spin-orbit coupling
   INIWAV =      1    electr: 0-lowe 1-rand  2-diag
   LASPH  =      T    aspherical Exc in radial PAW
 Electronic Relaxation 1
   ENCUT  =  520.0 eV  38.22 Ry    6.18 a.u.  11.22 11.22 11.22*2*pi/ulx,y,z
   ENINI  =  520.0     initial cutoff
   ENAUG  =  703.4 eV  augmentation charge cutoff
   NELM   =   1000;   NELMIN=  2; NELMDL=  0     # of ELM steps 
   EDIFF  = 0.9E-03   stopping-criterion for ELM
   LREAL  =      T    real-space projection
   NLSPLINE    = F    spline interpolate recip. space projectors
   LCOMPAT=      F    compatible to vasp.4.4
   GGA_COMPAT  = T    GGA compatible to vasp.4.4-vasp.4.6
   LMAXPAW     = -100 max onsite density
   LMAXMIX     =    2 max onsite mixed and CHGCAR
   VOSKOWN=      0    Vosko Wilk Nusair interpolation
   ROPT   =   -0.00025  -0.00025  -0.00025
 Ionic relaxation
   EDIFFG = 0.9E-02   stopping-criterion for IOM
   NSW    =      0    number of steps for IOM
   NBLOCK =      1;   KBLOCK =      1    inner block; outer block 
   IBRION =     -1    ionic relax: 0-MD 1-quasi-New 2-CG
   NFREE  =      0    steps in history (QN), initial steepest desc. (CG)
   ISIF   =      3    stress and relaxation
   IWAVPR =     10    prediction:  0-non 1-charg 2-wave 3-comb
   ISYM   =      2    0-nonsym 1-usesym 2-fastsym
   LCORR  =      T    Harris-Foulkes like correction to forces

   POTIM  = 0.5000    time-step for ionic-motion
   TEIN   =    0.0    initial temperature
   TEBEG  =    0.0;   TEEND  =   0.0 temperature during run
   SMASS  =  -3.00    Nose mass-parameter (am)
   estimated Nose-frequenzy (Omega)   =  0.10E-29 period in steps = 0.13E+47 mass=  -0.832E-27a.u.
   SCALEE = 1.0000    scale energy and forces
   NPACO  =    256;   APACO  = 10.0  distance and # of slots for P.C.
   PSTRESS=    0.0 pullay stress

  Mass of Ions in am
   POMASS = 151.97 58.69 10.81
  Ionic Valenz
   ZVAL   =  17.00 16.00  3.00
  Atomic Wigner-Seitz radii
   RWIGS  =  -1.00 -1.00 -1.00
  virtual crystal weights 
   VCA    =   1.00  1.00  1.00
   NELECT =     227.0000    total number of electrons
   NUPDOWN=      10.0000    fix difference up-down

 DOS related values:
   EMIN   =  10.00;   EMAX   =-10.00  energy-range for DOS
   EFERMI =   0.00
   ISMEAR =    -5;   SIGMA  =   0.05  broadening in eV -4-tet -1-fermi 0-gaus

 Electronic relaxation 2 (details)
   IALGO  =     38    algorithm
   LDIAG  =      T    sub-space diagonalisation (order eigenvalues)
   LSUBROT=      F    optimize rotation matrix (better conditioning)
   TURBO    =      0    0=normal 1=particle mesh
   IRESTART =      0    0=no restart 2=restart with 2 vectors
   NREBOOT  =      0    no. of reboots
   NMIN     =      0    reboot dimension
   EREF     =   0.00    reference energy to select bands
   IMIX   =      4    mixing-type and parameters
     AMIX     =   0.40;   BMIX     =  1.00
     AMIX_MAG =   1.60;   BMIX_MAG =  1.00
     AMIN     =   0.10
     WC   =   100.;   INIMIX=   1;  MIXPRE=   1;  MAXMIX= -45

 Intra band minimization:
   WEIMIN = 0.0000     energy-eigenvalue tresh-hold
   EBREAK =  0.14E-05  absolut break condition
   DEPER  =   0.30     relativ break condition  

   TIME   =   0.40     timestep for ELM

  volume/ion in A,a.u.               =      10.26        69.24
  Fermi-wavevector in a.u.,A,eV,Ry     =   1.722325  3.254723 40.360387  2.966405
  Thomas-Fermi vector in A             =   2.798411
 
 Write flags
   LWAVE        =      F    write WAVECAR
   LDOWNSAMPLE  =      F    k-point downsampling of WAVECAR
   LCHARG       =      T    write CHGCAR
   LVTOT        =      F    write LOCPOT, total local potential
   LVHAR        =      T    write LOCPOT, Hartree potential only
   LELF         =      T    write electronic localiz. function (ELF)
   LORBIT       =     11    0 simple, 1 ext, 2 COOP (PROOUT), +10 PAW based schemes


 Dipole corrections
   LMONO  =      F    monopole corrections only (constant potential shift)
   LDIPOL =      F    correct potential (dipole corrections)
   IDIPOL =      0    1-x, 2-y, 3-z, 4-all directions 
   EPSILON=  1.0000000 bulk dielectric constant

 Exchange correlation treatment:
   GGA     =    --    GGA type
   LEXCH   =     8    internal setting for exchange type
   LIBXC   =     F    Libxc                    
   VOSKOWN =     0    Vosko Wilk Nusair interpolation
   LHFCALC =     F    Hartree Fock is set to
   LHFONE  =     F    Hartree Fock one center treatment
   AEXX    =    0.0000 exact exchange contribution

 Linear response parameters
   LEPSILON=     F    determine dielectric tensor
   LRPA    =     F    only Hartree local field effects (RPA)
   LNABLA  =     F    use nabla operator in PAW spheres
   LVEL    =     F    velocity operator in full k-point grid
   CSHIFT  =0.1000    complex shift for real part using Kramers Kronig
   OMEGAMAX=  -1.0    maximum frequency
   DEG_THRESHOLD= 0.2000000E-02 threshold for treating states as degnerate
   RTIME   =   -0.100 relaxation time in fs
  (WPLASMAI=    0.000 imaginary part of plasma frequency in eV, 0.658/RTIME)
   DFIELD  = 0.0000000 0.0000000 0.0000000 field for delta impulse in time
 
  Optional k-point grid parameters
   LKPOINTS_OPT  =     F    use optional k-point grid
   KPOINTS_OPT_MODE=     1    mode for optional k-point grid
 
 Orbital magnetization related:
   ORBITALMAG=     F  switch on orbital magnetization
   LCHIMAG   =     F  perturbation theory with respect to B field
   DQ        =  0.001000  dq finite difference perturbation B field
   LLRAUG    =     F  two centre corrections for induced B field



--------------------------------------------------------------------------------------------------------


 Static calculation
 charge density and potential will be updated during run
 spin polarized calculation
 Variant of blocked Davidson
 Davidson routine will perform the subspace rotation
 perform sub-space diagonalisation
    after iterative eigenvector-optimisation
 modified Broyden-mixing scheme, WC =      100.0
 initial mixing is a Kerker type mixing with AMIX =  0.4000 and BMIX =      1.0000
 Hartree-type preconditioning will be used
 using additional bands            58
 real space projection scheme for non local part
 use partial core corrections
 calculate Harris-corrections to forces 
   (improved forces if not selfconsistent)
 use gradient corrections 
 use of overlap-Matrix (Vanderbilt PP)
 Fermi weights with tetrahedron method with Bloechl corrections


--------------------------------------------------------------------------------------------------------


  energy-cutoff  :      520.00
  volume of cell :      194.94
      direct lattice vectors                 reciprocal lattice vectors
     3.702696000 -4.765705000  0.000000000     0.135036741 -0.104916272  0.059435065
     3.702696000  4.765705000  0.000000000     0.135036741  0.104916272  0.059435065
    -2.431198000  0.000000000  5.523693000    -0.000000000  0.000000000  0.181038302

  length of vectors
     6.035056074  6.035056074  6.035056592     0.181038317  0.181038317  0.181038302


 
 k-points in units of 2pi/SCALE and weight: Kpoints from vasprun.xml                
   0.00000000  0.00000000  0.00000000       0.008
   0.02700735 -0.02098325  0.01188701       0.048
   0.05401470 -0.04196651  0.02377403       0.048
   0.05401470  0.00000000  0.02377403       0.048
   0.08102204 -0.02098325  0.03566104       0.096
  -0.02700735  0.06294976 -0.01188701       0.096
   0.00000000  0.04196651  0.00000000       0.048
   0.10802939  0.00000000  0.04754805       0.048
   0.00000000  0.08393302  0.00000000       0.048
   0.05401470  0.00000000  0.05998169       0.016
   0.08102204 -0.02098325  0.07186870       0.048
  -0.02700735  0.06294976  0.02432065       0.048
   0.00000000  0.04196651  0.03620766       0.048
   0.10802939  0.00000000  0.08375571       0.048
   0.00000000  0.08393302  0.03620766       0.096
   0.02700735  0.06294976  0.04809467       0.096
  -0.10802939  0.00000000 -0.01134039       0.048
   0.10802939  0.00000000  0.11996337       0.016
   0.00000000  0.08393302  0.07241532       0.048
 
 k-points in reciprocal lattice and weights: Kpoints from vasprun.xml                
   0.00000000  0.00000000  0.00000000       0.008
   0.20000000  0.00000000  0.00000000       0.048
   0.40000000  0.00000000  0.00000000       0.048
   0.20000000  0.20000000  0.00000000       0.048
   0.40000000  0.20000000  0.00000000       0.096
  -0.40000000  0.20000000  0.00000000       0.096
  -0.20000000  0.20000000  0.00000000       0.048
   0.40000000  0.40000000  0.00000000       0.048
  -0.40000000  0.40000000  0.00000000       0.048
   0.20000000  0.20000000  0.20000000       0.016
   0.40000000  0.20000000  0.20000000       0.048
  -0.40000000  0.20000000  0.20000000       0.048
  -0.20000000  0.20000000  0.20000000       0.048
   0.40000000  0.40000000  0.20000000       0.048
  -0.40000000  0.40000000  0.20000000       0.096
  -0.20000000  0.40000000  0.20000000       0.096
  -0.40000000 -0.40000000  0.20000000       0.048
   0.40000000  0.40000000  0.40000000       0.016
  -0.40000000  0.40000000  0.40000000       0.048
 
 position of ions in fractional coordinates (direct lattice) 
   0.00000000  0.00000000  0.00000000
   0.81244500  0.54197600  0.54197600
   0.50000000  0.86886400  0.13113600
   0.13113600  0.50000000  0.86886400
   0.13113600  0.86886400  0.50000000
   0.86886400  0.50000000  0.13113600
   0.54197600  0.54197600  0.81244500
   0.50000000  0.13113600  0.86886400
   0.45802400  0.45802400  0.18755500
   0.86886400  0.13113600  0.50000000
   0.18755500  0.45802400  0.45802400
   0.45802400  0.18755500  0.45802400
   0.54197600  0.81244500  0.54197600
   0.23376700  0.66292000  0.23376700
   0.76623300  0.76623300  0.33708000
   0.33708000  0.76623300  0.76623300
   0.66292000  0.23376700  0.23376700
   0.23376700  0.23376700  0.66292000
   0.76623300  0.33708000  0.76623300
 
 position of ions in cartesian coordinates  (Angst):
   0.00000000  0.00000000  0.00000000
   3.69735825 -1.28897547  2.99370904
   4.74966968  1.75789701  0.72435501
   0.22452432  1.75789701  4.79933799
   2.48709700  3.51579402  2.76184650
   4.74966968 -1.75789701  0.72435501
   2.03833008  0.00000000  4.48769676
   0.22452432 -1.75789701  4.79933799
   2.93586392 -0.00000000  1.03599624
   2.48709700 -3.51579402  2.76184650
   1.27683575  1.28897547  2.52998396
   1.27683575 -1.28897547  2.52998396
   3.69735825  1.28897547  2.99370904
   2.75182551  2.04521660  1.29125714
   4.85474751 -0.00000000  1.86192644
   2.22236849  2.04521660  4.23243586
   2.75182551 -2.04521660  1.29125714
   0.11944649 -0.00000000  3.66176656
   2.22236849 -2.04521660  4.23243586
 


--------------------------------------------------------------------------------------------------------


 k-point   1 :   0.0000 0.0000 0.0000  plane waves:    5247
 k-point   2 :   0.2000 0.0000 0.0000  plane waves:    5252
 k-point   3 :   0.4000 0.0000 0.0000  plane waves:    5264
 k-point   4 :   0.2000 0.2000 0.0000  plane waves:    5249
 k-point   5 :   0.4000 0.2000 0.0000  plane waves:    5247
 k-point   6 :  -0.4000 0.2000 0.0000  plane waves:    5244
 k-point   7 :  -0.2000 0.2000 0.0000  plane waves:    5242
 k-point   8 :   0.4000 0.4000 0.0000  plane waves:    5247
 k-point   9 :  -0.4000 0.4000 0.0000  plane waves:    5256
 k-point  10 :   0.2000 0.2000 0.2000  plane waves:    5259
 k-point  11 :   0.4000 0.2000 0.2000  plane waves:    5249
 k-point  12 :  -0.4000 0.2000 0.2000  plane waves:    5246
 k-point  13 :  -0.2000 0.2000 0.2000  plane waves:    5257
 k-point  14 :   0.4000 0.4000 0.2000  plane waves:    5244
 k-point  15 :  -0.4000 0.4000 0.2000  plane waves:    5244
 k-point  16 :  -0.2000 0.4000 0.2000  plane waves:    5244
 k-point  17 :  -0.4000-0.4000 0.2000  plane waves:    5248
 k-point  18 :   0.4000 0.4000 0.4000  plane waves:    5260
 k-point  19 :  -0.4000 0.4000 0.4000  plane waves:    5255

 maximum and minimum number of plane-waves per node :      5264     5242

 maximum number of plane-waves:      5264
 maximum index in each direction: 
   IXMAX=   11   IYMAX=   11   IZMAX=   11
   IXMIN=  -11   IYMIN=  -11   IZMIN=  -11


 serial   3D FFT for wavefunctions
 parallel 3D FFT for charge:
    minimum data exchange during FFTs selected (reduces bandwidth)


 total amount of memory used by VASP MPI-rank0   257915. kBytes
=======================================================================

   base      :      30000. kBytes
   nonlr-proj:      18950. kBytes
   fftplans  :      33021. kBytes
   grid      :      28717. kBytes
   one-center:       1867. kBytes
   wavefun   :     145360. kBytes
 
     INWAV:  cpu time      0.0001: real time      0.0007
 Broyden mixing: mesh for mixing (old mesh)
   NGX = 23   NGY = 23   NGZ = 23
  (NGX  = 96   NGY  = 96   NGZ  = 96)
  gives a total of  12167 points

 initial charge density was supplied:
 charge density of overlapping atoms calculated
 number of electron     227.0000000 magnetization      70.6000000
 keeping initial charge density in first step


--------------------------------------------------------------------------------------------------------


 Maximum index for non-local projection operator          9903
 Maximum index for augmentation-charges         62951 (set IRDMAX)


--------------------------------------------------------------------------------------------------------


 First call to EWALD:  gamma=   0.306
 Maximum number of real-space cells 3x 3x 3
 Maximum number of reciprocal cells 3x 3x 3

    FEWALD:  cpu time      0.0011: real time      0.0011


--------------------------------------- Iteration      1(   1)  ---------------------------------------


    POTLOK:  cpu time      0.1163: real time      0.1463
    SETDIJ:  cpu time      2.7163: real time      2.7175
     EDDAV:  cpu time      8.0620: real time      8.0705
 BZINTS: Fermi energy:   30.291720;  237.000000 electrons
         Band energy: 0.263003E+03;  BLOECHL correction:   -0.217902
 BZINTS: Fermi energy:   29.530196;  217.000000 electrons
         Band energy: 0.644413E+03;  BLOECHL correction:   -0.140936
       DOS:  cpu time      0.2458: real time      0.2459
    --------------------------------------------
      LOOP:  cpu time     11.1405: real time     11.1802

 eigenvalue-minimisations  : 18152
 total energy-change (2. order) : 0.3433289E+04  (-0.1283310E+05)
 number of electron     227.0000000 magnetization      70.6000000
 augmentation part      227.0000000 magnetization      70.6000000

 Free energy of the ion-electron system (eV)
  ---------------------------------------------------
  alpha Z        PSCENC =      1980.86988728
  Ewald energy   TEWEN  =    -28936.35837453
  -Hartree energ DENC   =    -14548.01935085
  -exchange      EXHF   =         0.00000000
  -V(xc)+E(xc)   XCENC  =      1235.39880886
  PAW double counting   =     37413.45260448   -39225.37060432
  entropy T*S    EENTRO =         0.00000000
  eigenvalues    EBANDS =       453.70778433
  atomic energy  EATOM  =     45059.60843883
  Solvation  Ediel_sol  =         0.00000000
  ---------------------------------------------------
  free energy    TOTEN  =      3433.28919409 eV

  energy without entropy =     3433.28919409  energy(sigma->0) =     3433.28919409


--------------------------------------------------------------------------------------------------------




--------------------------------------- Iteration      1(   2)  ---------------------------------------


     EDDAV:  cpu time      6.7817: real time      6.7887
 BZINTS: Fermi energy:   13.000289;  237.000000 electrons
         Band energy:-0.295841E+04;  BLOECHL correction:   -0.048566
 BZINTS: Fermi energy:   14.792846;  217.000000 electrons
         Band energy:-0.230574E+04;  BLOECHL correction:   -0.066807
       DOS:  cpu time      0.2246: real time      0.2248
    --------------------------------------------
      LOOP:  cpu time      7.0063: real time      7.0134

 eigenvalue-minimisations  : 14608
 total energy-change (2. order) :-0.3085780E+04  (-0.2843004E+04)
 number of electron     227.0000000 magnetization      70.6000000
 augmentation part      227.0000000 magnetization      70.6000000

 Free energy of the ion-electron system (eV)
  ---------------------------------------------------
  alpha Z        PSCENC =      1980.86988728
  Ewald energy   TEWEN  =    -28936.35837453
  -Hartree energ DENC   =    -14548.01935085
  -exchange      EXHF   =         0.00000000
  -V(xc)+E(xc)   XCENC  =      1235.39880886
  PAW double counting   =     37413.45260448   -39225.37060432
  entropy T*S    EENTRO =         0.00000000
  eigenvalues    EBANDS =     -2632.07247954
  atomic energy  EATOM  =     45059.60843883
  Solvation  Ediel_sol  =         0.00000000
  ---------------------------------------------------
  free energy    TOTEN  =       347.50893022 eV

  energy without entropy =      347.50893022  energy(sigma->0) =      347.50893022


--------------------------------------------------------------------------------------------------------




--------------------------------------- Iteration      1(   3)  ---------------------------------------


     EDDAV:  cpu time      6.3710: real time      6.3766
 BZINTS: Fermi energy:    9.859773;  237.000000 electrons
         Band energy:-0.340111E+04;  BLOECHL correction:   -0.055753
 BZINTS: Fermi energy:   12.073773;  217.000000 electrons
         Band energy:-0.270072E+04;  BLOECHL correction:   -0.034062
       DOS:  cpu time      0.2171: real time      0.2173
    --------------------------------------------
      LOOP:  cpu time      6.5880: real time      6.5939

 eigenvalue-minimisations  : 13404
 total energy-change (2. order) :-0.4188437E+03  (-0.3636651E+03)
 number of electron     227.0000000 magnetization      70.6000000
 augmentation part      227.0000000 magnetization      70.6000000

 Free energy of the ion-electron system (eV)
  ---------------------------------------------------
  alpha Z        PSCENC =      1980.86988728
  Ewald energy   TEWEN  =    -28936.35837453
  -Hartree energ DENC   =    -14548.01935085
  -exchange      EXHF   =         0.00000000
  -V(xc)+E(xc)   XCENC  =      1235.39880886
  PAW double counting   =     37413.45260448   -39225.37060432
  entropy T*S    EENTRO =         0.00000000
  eigenvalues    EBANDS =     -3050.91613650
  atomic energy  EATOM  =     45059.60843883
  Solvation  Ediel_sol  =         0.00000000
  ---------------------------------------------------
  free energy    TOTEN  =       -71.33472674 eV

  energy without entropy =      -71.33472674  energy(sigma->0) =      -71.33472674


--------------------------------------------------------------------------------------------------------




--------------------------------------- Iteration      1(   4)  ---------------------------------------


     EDDAV:  cpu time      6.9283: real time      6.9329
 BZINTS: Fermi energy:    9.522917;  237.000000 electrons
         Band energy:-0.343564E+04;  BLOECHL correction:   -0.064147
 BZINTS: Fermi energy:   11.899805;  217.000000 electrons
         Band energy:-0.273377E+04;  BLOECHL correction:   -0.034998
       DOS:  cpu time      0.2233: real time      0.2234
    --------------------------------------------
      LOOP:  cpu time      7.1516: real time      7.1563

 eigenvalue-minimisations  : 14900
 total energy-change (2. order) :-0.3378991E+02  (-0.3184494E+02)
 number of electron     227.0000000 magnetization      70.6000000
 augmentation part      227.0000000 magnetization      70.6000000

 Free energy of the ion-electron system (eV)
  ---------------------------------------------------
  alpha Z        PSCENC =      1980.86988728
  Ewald energy   TEWEN  =    -28936.35837453
  -Hartree energ DENC   =    -14548.01935085
  -exchange      EXHF   =         0.00000000
  -V(xc)+E(xc)   XCENC  =      1235.39880886
  PAW double counting   =     37413.45260448   -39225.37060432
  entropy T*S    EENTRO =         0.00000000
  eigenvalues    EBANDS =     -3084.70604846
  atomic energy  EATOM  =     45059.60843883
  Solvation  Ediel_sol  =         0.00000000
  ---------------------------------------------------
  free energy    TOTEN  =      -105.12463870 eV

  energy without entropy =     -105.12463870  energy(sigma->0) =     -105.12463870


--------------------------------------------------------------------------------------------------------




--------------------------------------- Iteration      1(   5)  ---------------------------------------


     EDDAV:  cpu time      8.5368: real time      8.5421
 BZINTS: Fermi energy:    9.510209;  237.000000 electrons
         Band energy:-0.343689E+04;  BLOECHL correction:   -0.063548
 BZINTS: Fermi energy:   11.892865;  217.000000 electrons
         Band energy:-0.273506E+04;  BLOECHL correction:   -0.034736
       DOS:  cpu time      0.2217: real time      0.2218
    CHARGE:  cpu time      0.2769: real time      0.2837
    MIXING:  cpu time      0.0020: real time      0.0020
    --------------------------------------------
      LOOP:  cpu time      9.0374: real time      9.0496

 eigenvalue-minimisations  : 19512
 total energy-change (2. order) :-0.1267992E+01  (-0.1249311E+01)
 number of electron     226.9999999 magnetization      15.9086278
 augmentation part      105.7165186 magnetization      16.9128534

 Broyden mixing:
  rms(total) = 0.12934E+02    rms(broyden)= 0.12934E+02
  rms(prec ) = 0.17071E+02
  weight for this iteration     100.00

 Free energy of the ion-electron system (eV)
  ---------------------------------------------------
  alpha Z        PSCENC =      1980.86988728
  Ewald energy   TEWEN  =    -28936.35837453
  -Hartree energ DENC   =    -14548.01935085
  -exchange      EXHF   =         0.00000000
  -V(xc)+E(xc)   XCENC  =      1235.39880886
  PAW double counting   =     37413.45260448   -39225.37060432
  entropy T*S    EENTRO =         0.00000000
  eigenvalues    EBANDS =     -3085.97404086
  atomic energy  EATOM  =     45059.60843883
  Solvation  Ediel_sol  =         0.00000000
  ---------------------------------------------------
  free energy    TOTEN  =      -106.39263110 eV

  energy without entropy =     -106.39263110  energy(sigma->0) =     -106.39263110


--------------------------------------------------------------------------------------------------------




--------------------------------------- Iteration      1(   6)  ---------------------------------------


    POTLOK:  cpu time      0.0083: real time      0.0091
    SETDIJ:  cpu time      2.6981: real time      2.6990
     EDDAV:  cpu time      8.6422: real time      8.6472
 BZINTS: Fermi energy:    5.927755;  237.000000 electrons
         Band energy:-0.447321E+04;  BLOECHL correction:   -0.048998
 BZINTS: Fermi energy:    5.502924;  217.000000 electrons
         Band energy:-0.452518E+04;  BLOECHL correction:   -0.021425
       DOS:  cpu time      0.2238: real time      0.2239
    CHARGE:  cpu time      0.2736: real time      0.2737
    MIXING:  cpu time      0.0021: real time      0.0021
    --------------------------------------------
      LOOP:  cpu time     11.8481: real time     11.8550

 eigenvalue-minimisations  : 19672
 total energy-change (2. order) :-0.4248413E+03  (-0.3539384E+02)
 number of electron     227.0000000 magnetization      14.1921892
 augmentation part      124.0332625 magnetization       8.7223209

 Broyden mixing:
  rms(total) = 0.18052E+02    rms(broyden)= 0.18051E+02
  rms(prec ) = 0.30561E+02
  weight for this iteration     100.00

 eigenvalues of (default mixing * dielectric matrix)
  average eigenvalue GAMMA=   0.5583
  0.5583

 Free energy of the ion-electron system (eV)
  ---------------------------------------------------
  alpha Z        PSCENC =      1980.86988728
  Ewald energy   TEWEN  =    -28936.35837453
  -Hartree energ DENC   =    -13648.59256000
  -exchange      EXHF   =         0.00000000
  -V(xc)+E(xc)   XCENC  =      1170.55484498
  PAW double counting   =     37323.04248168   -38981.16442204
  entropy T*S    EENTRO =         0.00000000
  eigenvalues    EBANDS =     -4499.19421249
  atomic energy  EATOM  =     45059.60843883
  Solvation  Ediel_sol  =         0.00000000
  ---------------------------------------------------
  free energy    TOTEN  =      -531.23391629 eV

  energy without entropy =     -531.23391629  energy(sigma->0) =     -531.23391629


--------------------------------------------------------------------------------------------------------




--------------------------------------- Iteration      1(   7)  ---------------------------------------


    POTLOK:  cpu time      0.0081: real time      0.0090
    SETDIJ:  cpu time      2.7009: real time      2.7016
     EDDAV:  cpu time      7.4841: real time      7.4881
 BZINTS: Fermi energy:    6.304568;  237.000000 electrons
         Band energy:-0.407486E+04;  BLOECHL correction:   -0.053291
 BZINTS: Fermi energy:    4.975986;  217.000000 electrons
         Band energy:-0.409457E+04;  BLOECHL correction:   -0.027614
       DOS:  cpu time      0.2103: real time      0.2104
    CHARGE:  cpu time      0.2732: real time      0.2733
    MIXING:  cpu time      0.0022: real time      0.0022
    --------------------------------------------
      LOOP:  cpu time     10.6788: real time     10.6847

 eigenvalue-minimisations  : 16668
 total energy-change (2. order) : 0.3594665E+03  (-0.2691208E+02)
 number of electron     227.0000000 magnetization      13.1494982
 augmentation part      129.3865746 magnetization       7.2976852

 Broyden mixing:
  rms(total) = 0.88021E+01    rms(broyden)= 0.88019E+01
  rms(prec ) = 0.16223E+02
  weight for this iteration     100.00

 eigenvalues of (default mixing * dielectric matrix)
  average eigenvalue GAMMA=   0.4942
  0.6510  0.3375

 Free energy of the ion-electron system (eV)
  ---------------------------------------------------
  alpha Z        PSCENC =      1980.86988728
  Ewald energy   TEWEN  =    -28936.35837453
  -Hartree energ DENC   =    -13641.82441447
  -exchange      EXHF   =         0.00000000
  -V(xc)+E(xc)   XCENC  =      1173.87242746
  PAW double counting   =     37999.54248897   -39722.76472741
  entropy T*S    EENTRO =         0.00000000
  eigenvalues    EBANDS =     -4084.71312626
  atomic energy  EATOM  =     45059.60843883
  Solvation  Ediel_sol  =         0.00000000
  ---------------------------------------------------
  free energy    TOTEN  =      -171.76740013 eV

  energy without entropy =     -171.76740013  energy(sigma->0) =     -171.76740013


--------------------------------------------------------------------------------------------------------




--------------------------------------- Iteration      1(   8)  ---------------------------------------


    POTLOK:  cpu time      0.0079: real time      0.0089
    SETDIJ:  cpu time      2.6969: real time      2.6981
     EDDAV:  cpu time      7.7781: real time      7.7812
 BZINTS: Fermi energy:    9.342927;  237.000000 electrons
         Band energy:-0.374864E+04;  BLOECHL correction:   -0.095810
 BZINTS: Fermi energy:    7.544959;  217.000000 electrons
         Band energy:-0.380334E+04;  BLOECHL correction:   -0.012948
       DOS:  cpu time      0.2091: real time      0.2091
    CHARGE:  cpu time      0.2725: real time      0.2726
    MIXING:  cpu time      0.0022: real time      0.0022
    --------------------------------------------
      LOOP:  cpu time     10.9667: real time     10.9722

 eigenvalue-minimisations  : 17464
 total energy-change (2. order) :-0.6679718E+01  (-0.1409797E+02)
 number of electron     226.9999999 magnetization      11.3707004
 augmentation part      117.8202932 magnetization       5.6593041

 Broyden mixing:
  rms(total) = 0.84128E+01    rms(broyden)= 0.84125E+01
  rms(prec ) = 0.15211E+02
  weight for this iteration     100.00

 eigenvalues of (default mixing * dielectric matrix)
  average eigenvalue GAMMA=   0.4549
  0.8150  0.2749  0.2749

 Free energy of the ion-electron system (eV)
  ---------------------------------------------------
  alpha Z        PSCENC =      1980.86988728
  Ewald energy   TEWEN  =    -28936.35837453
  -Hartree energ DENC   =    -13889.21228138
  -exchange      EXHF   =         0.00000000
  -V(xc)+E(xc)   XCENC  =      1182.74547273
  PAW double counting   =     38897.27317432   -40697.38156058
  entropy T*S    EENTRO =         0.00000000
  eigenvalues    EBANDS =     -3775.99187517
  atomic energy  EATOM  =     45059.60843883
  Solvation  Ediel_sol  =         0.00000000
  ---------------------------------------------------
  free energy    TOTEN  =      -178.44711850 eV

  energy without entropy =     -178.44711850  energy(sigma->0) =     -178.44711850


--------------------------------------------------------------------------------------------------------




--------------------------------------- Iteration      1(   9)  ---------------------------------------


    POTLOK:  cpu time      0.0081: real time      0.0093
    SETDIJ:  cpu time      2.7180: real time      2.7197
     EDDAV:  cpu time      7.3014: real time      7.3056
 BZINTS: Fermi energy:    8.422249;  237.000000 electrons
         Band energy:-0.346788E+04;  BLOECHL correction:   -0.002807
 BZINTS: Fermi energy:    7.724177;  217.000000 electrons
         Band energy:-0.351082E+04;  BLOECHL correction:   -0.048888
       DOS:  cpu time      0.2277: real time      0.2278
    CHARGE:  cpu time      0.2725: real time      0.2726
    MIXING:  cpu time      0.0022: real time      0.0022
    --------------------------------------------
      LOOP:  cpu time     10.5300: real time     10.5373

 eigenvalue-minimisations  : 16088
 total energy-change (2. order) : 0.6329897E+02  (-0.4737670E+01)
 number of electron     226.9999999 magnetization      10.6349110
 augmentation part      116.2840579 magnetization       7.4000988

 Broyden mixing:
  rms(total) = 0.35686E+01    rms(broyden)= 0.35685E+01
  rms(prec ) = 0.55917E+01
  weight for this iteration     100.00

 eigenvalues of (default mixing * dielectric matrix)
  average eigenvalue GAMMA=   0.4238
  0.8056  0.2827  0.2827  0.3243

 Free energy of the ion-electron system (eV)
  ---------------------------------------------------
  alpha Z        PSCENC =      1980.86988728
  Ewald energy   TEWEN  =    -28936.35837453
  -Hartree energ DENC   =    -14082.01348275
  -exchange      EXHF   =         0.00000000
  -V(xc)+E(xc)   XCENC  =      1188.12071799
  PAW double counting   =     39985.35081734   -41821.37440395
  entropy T*S    EENTRO =         0.00000000
  eigenvalues    EBANDS =     -3489.35174883
  atomic energy  EATOM  =     45059.60843883
  Solvation  Ediel_sol  =         0.00000000
  ---------------------------------------------------
  free energy    TOTEN  =      -115.14814863 eV

  energy without entropy =     -115.14814863  energy(sigma->0) =     -115.14814863


--------------------------------------------------------------------------------------------------------




--------------------------------------- Iteration      1(  10)  ---------------------------------------


    POTLOK:  cpu time      0.0085: real time      0.0095
    SETDIJ:  cpu time      2.7094: real time      2.7108
     EDDAV:  cpu time      7.7326: real time      7.7360
 BZINTS: Fermi energy:    7.545255;  237.000000 electrons
         Band energy:-0.356549E+04;  BLOECHL correction:   -0.053717
 BZINTS: Fermi energy:    6.789262;  217.000000 electrons
         Band energy:-0.358392E+04;  BLOECHL correction:   -0.043091
       DOS:  cpu time      0.2243: real time      0.2244
    CHARGE:  cpu time      0.2760: real time      0.2765
    MIXING:  cpu time      0.0024: real time      0.0024
    --------------------------------------------
      LOOP:  cpu time     10.9532: real time     10.9596

 eigenvalue-minimisations  : 17352
 total energy-change (2. order) :-0.1406537E+02  (-0.6030800E+01)
 number of electron     227.0000000 magnetization      10.5443145
 augmentation part      120.3286211 magnetization       7.3684481

 Broyden mixing:
  rms(total) = 0.61879E+01    rms(broyden)= 0.61876E+01
  rms(prec ) = 0.13500E+02
  weight for this iteration     100.00

 eigenvalues of (default mixing * dielectric matrix)
  average eigenvalue GAMMA=   0.4329
  0.6537  0.6537  0.2799  0.2799  0.2973

 Free energy of the ion-electron system (eV)
  ---------------------------------------------------
  alpha Z        PSCENC =      1980.86988728
  Ewald energy   TEWEN  =    -28936.35837453
  -Hartree energ DENC   =    -14022.61644975
  -exchange      EXHF   =         0.00000000
  -V(xc)+E(xc)   XCENC  =      1186.23905516
  PAW double counting   =     39989.96844605   -41812.21945518
  entropy T*S    EENTRO =         0.00000000
  eigenvalues    EBANDS =     -3574.70506213
  atomic energy  EATOM  =     45059.60843883
  Solvation  Ediel_sol  =         0.00000000
  ---------------------------------------------------
  free energy    TOTEN  =      -129.21351427 eV

  energy without entropy =     -129.21351427  energy(sigma->0) =     -129.21351427


--------------------------------------------------------------------------------------------------------




--------------------------------------- Iteration      1(  11)  ---------------------------------------


    POTLOK:  cpu time      0.0082: real time      0.0092
    SETDIJ:  cpu time      2.6932: real time      2.6941
     EDDAV:  cpu time      7.6975: real time      7.7007
 BZINTS: Fermi energy:    8.285167;  237.000000 electrons
         Band energy:-0.356152E+04;  BLOECHL correction:   -0.002726
 BZINTS: Fermi energy:    7.131486;  217.000000 electrons
         Band energy:-0.360670E+04;  BLOECHL correction:   -0.061735
       DOS:  cpu time      0.2254: real time      0.2254
    CHARGE:  cpu time      0.2719: real time      0.2721
    MIXING:  cpu time      0.0023: real time      0.0023
    --------------------------------------------
      LOOP:  cpu time     10.8984: real time     10.9036

 eigenvalue-minimisations  : 17228
 total energy-change (2. order) : 0.8378440E+01  (-0.8196515E+00)
 number of electron     226.9999999 magnetization      10.1643505
 augmentation part      117.4706412 magnetization       6.8191148

 Broyden mixing:
  rms(total) = 0.29083E+01    rms(broyden)= 0.29080E+01
  rms(prec ) = 0.61658E+01
  weight for this iteration     100.00

 eigenvalues of (default mixing * dielectric matrix)
  average eigenvalue GAMMA=   0.4843
  0.7448  0.7448  0.7487  0.2666  0.2666  0.1345

 Free energy of the ion-electron system (eV)
  ---------------------------------------------------
  alpha Z        PSCENC =      1980.86988728
  Ewald energy   TEWEN  =    -28936.35837453
  -Hartree energ DENC   =    -13995.47135181
  -exchange      EXHF   =         0.00000000
  -V(xc)+E(xc)   XCENC  =      1185.37708287
  PAW double counting   =     40014.45283880   -41845.20306485
  entropy T*S    EENTRO =         0.00000000
  eigenvalues    EBANDS =     -3584.11053082
  atomic energy  EATOM  =     45059.60843883
  Solvation  Ediel_sol  =         0.00000000
  ---------------------------------------------------
  free energy    TOTEN  =      -120.83507424 eV

  energy without entropy =     -120.83507424  energy(sigma->0) =     -120.83507424


--------------------------------------------------------------------------------------------------------




--------------------------------------- Iteration      1(  12)  ---------------------------------------


    POTLOK:  cpu time      0.0081: real time      0.0092
    SETDIJ:  cpu time      2.6788: real time      2.6797
     EDDAV:  cpu time      8.0137: real time      8.0181
 BZINTS: Fermi energy:    7.368771;  237.000000 electrons
         Band energy:-0.359684E+04;  BLOECHL correction:   -0.051804
 BZINTS: Fermi energy:    6.809447;  217.000000 electrons
         Band energy:-0.360386E+04;  BLOECHL correction:   -0.019167
       DOS:  cpu time      0.2189: real time      0.2190
    CHARGE:  cpu time      0.2752: real time      0.2753
    MIXING:  cpu time      0.0023: real time      0.0023
    --------------------------------------------
      LOOP:  cpu time     11.1970: real time     11.2036

 eigenvalue-minimisations  : 18140
 total energy-change (2. order) :-0.1646657E+01  (-0.3668076E+01)
 number of electron     226.9999999 magnetization      10.0930351
 augmentation part      120.2336983 magnetization       7.8994042

 Broyden mixing:
  rms(total) = 0.34303E+01    rms(broyden)= 0.34301E+01
  rms(prec ) = 0.76737E+01
  weight for this iteration     100.00

 eigenvalues of (default mixing * dielectric matrix)
  average eigenvalue GAMMA=   0.5178
  0.9854  0.9854  0.7254  0.2728  0.2728  0.2623  0.1202

 Free energy of the ion-electron system (eV)
  ---------------------------------------------------
  alpha Z        PSCENC =      1980.86988728
  Ewald energy   TEWEN  =    -28936.35837453
  -Hartree energ DENC   =    -13985.37322581
  -exchange      EXHF   =         0.00000000
  -V(xc)+E(xc)   XCENC  =      1184.53860935
  PAW double counting   =     40198.09775761   -42023.51501504
  entropy T*S    EENTRO =         0.00000000
  eigenvalues    EBANDS =     -3600.34980877
  atomic energy  EATOM  =     45059.60843883
  Solvation  Ediel_sol  =         0.00000000
  ---------------------------------------------------
  free energy    TOTEN  =      -122.48173107 eV

  energy without entropy =     -122.48173107  energy(sigma->0) =     -122.48173107


--------------------------------------------------------------------------------------------------------




--------------------------------------- Iteration      1(  13)  ---------------------------------------


    POTLOK:  cpu time      0.0080: real time      0.0090
    SETDIJ:  cpu time      2.6924: real time      2.6937
     EDDAV:  cpu time      7.9401: real time      7.9442
 BZINTS: Fermi energy:    7.381566;  237.000000 electrons
         Band energy:-0.359193E+04;  BLOECHL correction:   -0.051126
 BZINTS: Fermi energy:    6.974031;  217.000000 electrons
         Band energy:-0.360243E+04;  BLOECHL correction:   -0.015886
       DOS:  cpu time      0.2190: real time      0.2191
    CHARGE:  cpu time      0.2719: real time      0.2720
    MIXING:  cpu time      0.0024: real time      0.0024
    --------------------------------------------
      LOOP:  cpu time     11.1337: real time     11.1403

 eigenvalue-minimisations  : 17968
 total energy-change (2. order) : 0.5205259E+00  (-0.2210679E+00)
 number of electron     226.9999999 magnetization      10.0733997
 augmentation part      119.6966616 magnetization       8.3337557

 Broyden mixing:
  rms(total) = 0.26020E+01    rms(broyden)= 0.26020E+01
  rms(prec ) = 0.48076E+01
  weight for this iteration     100.00

 eigenvalues of (default mixing * dielectric matrix)
  average eigenvalue GAMMA=   0.4701
  1.0059  1.0059  0.7294  0.2693  0.2693  0.1756  0.1756  0.1296

 Free energy of the ion-electron system (eV)
  ---------------------------------------------------
  alpha Z        PSCENC =      1980.86988728
  Ewald energy   TEWEN  =    -28936.35837453
  -Hartree energ DENC   =    -13986.30860773
  -exchange      EXHF   =         0.00000000
  -V(xc)+E(xc)   XCENC  =      1184.78979646
  PAW double counting   =     40304.18406608   -42131.57054084
  entropy T*S    EENTRO =         0.00000000
  eigenvalues    EBANDS =     -3597.17587074
  atomic energy  EATOM  =     45059.60843883
  Solvation  Ediel_sol  =         0.00000000
  ---------------------------------------------------
  free energy    TOTEN  =      -121.96120519 eV

  energy without entropy =     -121.96120519  energy(sigma->0) =     -121.96120519


--------------------------------------------------------------------------------------------------------




--------------------------------------- Iteration      1(  14)  ---------------------------------------


    POTLOK:  cpu time      0.0082: real time      0.0091
    SETDIJ:  cpu time      2.6872: real time      2.6879
     EDDAV:  cpu time      7.7155: real time      7.7200
 BZINTS: Fermi energy:    7.396416;  237.000000 electrons
         Band energy:-0.358997E+04;  BLOECHL correction:   -0.052028
 BZINTS: Fermi energy:    7.008889;  217.000000 electrons
         Band energy:-0.360217E+04;  BLOECHL correction:   -0.028366
       DOS:  cpu time      0.2260: real time      0.2261
    CHARGE:  cpu time      0.2726: real time      0.2727
    MIXING:  cpu time      0.0025: real time      0.0025
    --------------------------------------------
      LOOP:  cpu time     10.9119: real time     10.9183

 eigenvalue-minimisations  : 17216
 total energy-change (2. order) :-0.2185476E+00  (-0.4386426E-01)
 number of electron     226.9999999 magnetization      10.0649782
 augmentation part      119.5570398 magnetization       8.4296691

 Broyden mixing:
  rms(total) = 0.24243E+01    rms(broyden)= 0.24243E+01
  rms(prec ) = 0.40911E+01
  weight for this iteration     100.00

 eigenvalues of (default mixing * dielectric matrix)
  average eigenvalue GAMMA=   0.4175
  1.0059  1.0059  0.7296  0.2695  0.2695  0.1572  0.1363  0.1363  0.0471

 Free energy of the ion-electron system (eV)
  ---------------------------------------------------
  alpha Z        PSCENC =      1980.86988728
  Ewald energy   TEWEN  =    -28936.35837453
  -Hartree energ DENC   =    -13987.31351649
  -exchange      EXHF   =         0.00000000
  -V(xc)+E(xc)   XCENC  =      1184.97816053
  PAW double counting   =     40332.51106188   -42160.40522664
  entropy T*S    EENTRO =         0.00000000
  eigenvalues    EBANDS =     -3596.07018360
  atomic energy  EATOM  =     45059.60843883
  Solvation  Ediel_sol  =         0.00000000
  ---------------------------------------------------
  free energy    TOTEN  =      -122.17975274 eV

  energy without entropy =     -122.17975274  energy(sigma->0) =     -122.17975274


--------------------------------------------------------------------------------------------------------




--------------------------------------- Iteration      1(  15)  ---------------------------------------


    POTLOK:  cpu time      0.0080: real time      0.0093
    SETDIJ:  cpu time      2.6961: real time      2.6983
     EDDAV:  cpu time      7.3446: real time      7.3495
 BZINTS: Fermi energy:    7.412850;  237.000000 electrons
         Band energy:-0.358715E+04;  BLOECHL correction:   -0.052699
 BZINTS: Fermi energy:    7.066978;  217.000000 electrons
         Band energy:-0.360119E+04;  BLOECHL correction:   -0.043651
       DOS:  cpu time      0.2176: real time      0.2176
    CHARGE:  cpu time      0.2727: real time      0.2729
    MIXING:  cpu time      0.0026: real time      0.0026
    --------------------------------------------
      LOOP:  cpu time     10.5417: real time     10.5503

 eigenvalue-minimisations  : 16020
 total energy-change (2. order) :-0.2414641E+00  (-0.5067844E-01)
 number of electron     226.9999999 magnetization      10.0641880
 augmentation part      119.3953384 magnetization       8.5248163

 Broyden mixing:
  rms(total) = 0.23089E+01    rms(broyden)= 0.23089E+01
  rms(prec ) = 0.34780E+01
  weight for this iteration     100.00

 eigenvalues of (default mixing * dielectric matrix)
  average eigenvalue GAMMA=   0.4642
  1.0054  1.0054  0.7315  0.3328  0.3025  0.3025  0.2727  0.2727  0.2938  0.1226

 Free energy of the ion-electron system (eV)
  ---------------------------------------------------
  alpha Z        PSCENC =      1980.86988728
  Ewald energy   TEWEN  =    -28936.35837453
  -Hartree energ DENC   =    -13989.23539758
  -exchange      EXHF   =         0.00000000
  -V(xc)+E(xc)   XCENC  =      1185.21339314
  PAW double counting   =     40348.51964710   -42176.87107117
  entropy T*S    EENTRO =         0.00000000
  eigenvalues    EBANDS =     -3594.16773987
  atomic energy  EATOM  =     45059.60843883
  Solvation  Ediel_sol  =         0.00000000
  ---------------------------------------------------
  free energy    TOTEN  =      -122.42121679 eV

  energy without entropy =     -122.42121679  energy(sigma->0) =     -122.42121679


--------------------------------------------------------------------------------------------------------




--------------------------------------- Iteration      1(  16)  ---------------------------------------


    POTLOK:  cpu time      0.0081: real time      0.0091
    SETDIJ:  cpu time      2.6594: real time      2.6609
     EDDAV:  cpu time      6.6392: real time      6.6432
 BZINTS: Fermi energy:    7.413916;  237.000000 electrons
         Band energy:-0.358730E+04;  BLOECHL correction:   -0.052963
 BZINTS: Fermi energy:    7.073913;  217.000000 electrons
         Band energy:-0.360134E+04;  BLOECHL correction:   -0.046944
       DOS:  cpu time      0.2263: real time      0.2264
    CHARGE:  cpu time      0.2727: real time      0.2727
    MIXING:  cpu time      0.0026: real time      0.0026
    --------------------------------------------
      LOOP:  cpu time      9.8084: real time      9.8150

 eigenvalue-minimisations  : 14016
 total energy-change (2. order) :-0.7235806E-01  (-0.3566382E-02)
 number of electron     226.9999999 magnetization      10.0638239
 augmentation part      119.3848253 magnetization       8.5327113

 Broyden mixing:
  rms(total) = 0.23017E+01    rms(broyden)= 0.23017E+01
  rms(prec ) = 0.34247E+01
  weight for this iteration     100.00

 eigenvalues of (default mixing * dielectric matrix)
  average eigenvalue GAMMA=   0.4977
  1.0080  1.0080  0.4941  0.4941  0.7283  0.3643  0.3643  0.2750  0.2750  0.3414
  0.1227

 Free energy of the ion-electron system (eV)
  ---------------------------------------------------
  alpha Z        PSCENC =      1980.86988728
  Ewald energy   TEWEN  =    -28936.35837453
  -Hartree energ DENC   =    -13989.14851086
  -exchange      EXHF   =         0.00000000
  -V(xc)+E(xc)   XCENC  =      1185.22721326
  PAW double counting   =     40348.79857381   -42177.17330809
  entropy T*S    EENTRO =         0.00000000
  eigenvalues    EBANDS =     -3594.31749454
  atomic energy  EATOM  =     45059.60843883
  Solvation  Ediel_sol  =         0.00000000
  ---------------------------------------------------
  free energy    TOTEN  =      -122.49357485 eV

  energy without entropy =     -122.49357485  energy(sigma->0) =     -122.49357485


--------------------------------------------------------------------------------------------------------




--------------------------------------- Iteration      1(  17)  ---------------------------------------


    POTLOK:  cpu time      0.0080: real time      0.0091
    SETDIJ:  cpu time      2.7001: real time      2.7014
     EDDAV:  cpu time      6.4274: real time      6.4298
 BZINTS: Fermi energy:    7.424686;  237.000000 electrons
         Band energy:-0.358632E+04;  BLOECHL correction:   -0.053123
 BZINTS: Fermi energy:    7.093050;  217.000000 electrons
         Band energy:-0.360058E+04;  BLOECHL correction:   -0.040498
       DOS:  cpu time      0.2132: real time      0.2132
    CHARGE:  cpu time      0.2746: real time      0.2750
    MIXING:  cpu time      0.0027: real time      0.0027
    --------------------------------------------
      LOOP:  cpu time      9.6259: real time      9.6312

 eigenvalue-minimisations  : 13384
 total energy-change (2. order) :-0.2115585E+00  (-0.6513568E-02)
 number of electron     226.9999999 magnetization      10.0293652
 augmentation part      119.3063136 magnetization       8.5339428

 Broyden mixing:
  rms(total) = 0.22336E+01    rms(broyden)= 0.22336E+01
  rms(prec ) = 0.32018E+01
  weight for this iteration     100.00

 eigenvalues of (default mixing * dielectric matrix)
  average eigenvalue GAMMA=   0.5699
  0.8231  0.8231  1.0139  1.0139  0.7464  0.4913  0.4913  0.3802  0.3802  0.2762
  0.2762  0.1227

 Free energy of the ion-electron system (eV)
  ---------------------------------------------------
  alpha Z        PSCENC =      1980.86988728
  Ewald energy   TEWEN  =    -28936.35837453
  -Hartree energ DENC   =    -13990.39701894
  -exchange      EXHF   =         0.00000000
  -V(xc)+E(xc)   XCENC  =      1185.37546889
  PAW double counting   =     40348.47728946   -42176.83064481
  entropy T*S    EENTRO =         0.00000000
  eigenvalues    EBANDS =     -3593.45017947
  atomic energy  EATOM  =     45059.60843883
  Solvation  Ediel_sol  =         0.00000000
  ---------------------------------------------------
  free energy    TOTEN  =      -122.70513330 eV

  energy without entropy =     -122.70513330  energy(sigma->0) =     -122.70513330


--------------------------------------------------------------------------------------------------------




--------------------------------------- Iteration      1(  18)  ---------------------------------------


    POTLOK:  cpu time      0.0081: real time      0.0090
    SETDIJ:  cpu time      2.6910: real time      2.6922
     EDDAV:  cpu time      7.9439: real time      7.9473
 BZINTS: Fermi energy:    7.470524;  237.000000 electrons
[...]
  260          m_sumb_d                              0.000100                          2   4
  261        strnlr                                2.895862                            1   3
  262          rspher_all                            0.152871                          9   4
  263          phaser                                0.657921                        171   4
  264          rpro_isp                              2.078053                        171   4
  265            fftwav_mpi                            0.455387                    14706   5
  266              fftwav                                0.438325                  14706   6
  267                fft3d                                 0.097069                14706   7
  268            rpromu_acc                            0.887329                     3762   5
  269          m_sumb_d                              0.000014                          1   4
  270        fft3d_mpi                             0.003397                           22   3
  271          fftbrc_mpi                            0.002682                         22   4
  272            fftbas_plan_mpi                       0.002671                       22   5
  273              map_forward                           0.000968                     20   6
  274                map_gather                            0.000225                   10   7
  275                m_alltoallv_z                         0.000143                   10   7
  276                map_scatter                           0.000460                   10   7
  277              map_backward                          0.001066                     24   6
  278                map_gather                            0.000250                   12   7
  279                m_alltoallv_z                         0.000142                   12   7
  280                map_scatter                           0.000485                   12   7
  281        m_sumb_d                              0.000029                            5   3
  282        forhar                                0.001983                            2   3
  283          m_sumb_d                              0.000045                          2   4
  284        strehar                               0.001259                            1   3
  285          m_sumb_d                              0.000003                          1   4
  286        chggra                                0.000801                            1   3
  287          fft3d_mpi                             0.000460                          3   4
  288            fftbrc_mpi                            0.000360                        3   5
  289              fftbas_plan_mpi                       0.000360                      3   6
  290                map_forward                           0.000191                    4   7
  291                  map_gather                            0.000044                  2   8
  292                  m_alltoallv_z                         0.000027                  2   8
  293                  map_scatter                           0.000092                  2   8
  294                map_backward                          0.000082                    2   7
  295                  map_gather                            0.000019                  1   8
  296                  m_alltoallv_z                         0.000012                  1   8
  297                  map_scatter                           0.000035                  1   8
  298          m_sumb_d                              0.000009                          2   4
  299          pothar                                0.000080                          1   4
  300            m_sumb_d                              0.000009                        1   5
  301        brmix                                 0.005002                            1   3
  302          m_sumb_d                              0.000044                          6   4
  303          brpre                                 0.000021                          2   4
  304          setg0                                 0.000781                          1   4
  305          broyd                                 0.003269                          1   4
  306            m_sumb_d                              0.000542                       39   5
  307            brget                                 0.000679                      169   5
  308            brsav                                 0.000150                       37   5
  309        m_bcast_d                             0.000026                            2   3
  310      potlok                                0.029846                              2   2
  311        fft3d_mpi                             0.019129                           36   3
  312          fftbrc_mpi                            0.016380                         36   4
  313            fftbas_plan_mpi                       0.016367                       36   5
  314              map_forward                           0.004640                     40   6
  315                map_gather                            0.001616                   24   7
  316                m_alltoallv_z                         0.001449                   24   7
  317                map_scatter                           0.001385                   24   7
  318              map_backward                          0.004073                     32   6
  319                map_gather                            0.001280                   16   7
  320                m_alltoallv_z                         0.001377                   16   7
  321                map_scatter                           0.001215                   16   7
  322              dfftw_execute                         0.005906                     30   6
  323        m_sumb_d                              0.000025                            5   3
  324        pothar                                0.001244                            2   3
  325          m_sumb_d                              0.000104                          2   4
  326        m_bcast_d                             0.001870                            4   3
  327      potlok_metagga                        0.000000                              1   2
  328      set_dd_magatom                        0.000004                              1   2
  329      set_dd_paw                            2.530189                              1   2
  330        m_sumb_d                              0.922680                            7   3
  331      augmentation_charge                   0.101181                              1   2
  332        fft3d_mpi                             0.031419                            2   3
  333          fftbrc_mpi                            0.028234                          2   4
  334            fftbas_plan_mpi                       0.028231                        2   5
  335              dfftw_execute                         0.018836                      6   6
  336              map_backward                          0.009123                      4   6
  337                map_gather                            0.002231                    2   7
  338                m_alltoallv_z                         0.004354                    2   7
  339                map_scatter                           0.002531                    2   7
  340      fftwav_mpi                            3.754217                           4902   2
  341        fftwav                                3.748052                         4902   3
  342          fft3d                                 3.593295                       4902   4
  343      densta                               11.438729                              1   2
 
 Flat profile
 ============
 
             routine name                   CPU           calls
 ---------------------------------------------------------------
 m_sumb_d                               70.084740      327917
 set_dd_paw                             56.304735          35
 raccmu_                                52.163782      107778
 eddav                                  51.270254          37
 lapack                                 45.590997      107778
 redis_pw                               21.869133      569172
 densta                                 19.567111          38
 init_acc                               10.903081           1
 m_alltoall_d                           10.734228     1531026
 total_time                             10.733548           1
 fft3d                                   8.190983      628790
 phaser                                  6.186076        1653
 eccp                                    5.676708       60458
 redis_proj                              4.884543      717666
 fftwav                                  4.248092      419876
 setdij_                                 3.912677          61
 orth1                                   3.423879      323562
 rpromu_acc                              3.411752       82280
 racc0mu_acc                             3.171112      107778
 w1_copy                                 3.086431      626742
 overl                                   3.000973      357408
 m_bcast_z                               2.714325      114314
 hamiltmu                                2.635821      107778
 augmentation_charge                     2.388171          34
 dfftw_execute                           2.314662        1272
 setup_precond                           2.199889       60458
 soft_charge                             2.199825          33
 m_bcast_d                               1.782736      215631
 overl_mu                                1.683614      107778
 ggemm                                   1.485328      138710
 rpro_isp                                1.028171         247
 pw_charge                               1.010494       36362
 vhamil                                  0.963532      208914
 kinhamil                                0.959631      208914
 newband                                 0.931335      109184
 fftext_mpi                              0.895851      208914
 depsum                                  0.885634          33
 apply_precond                           0.835861      148456
 m_alltoallv_z                           0.671537        1489
 acc_init_cublas                         0.606278           1
 fftwav_mpi                              0.561679      419876
 fft3d_mpi                               0.451050      210247
 map_scatter                             0.349755        1489
 map_gather                              0.294338        1489
 sphpro_fast                             0.257587           2
 rspher_all                              0.228016          14
 set_charge                              0.221303          33
 potlok                                  0.133967          35
 elmin                                   0.099436           1
 fftbas_plan_mpi                         0.089093        1333
 w1_projall                              0.082605       76846
 proall                                  0.072578           1
 acc_init_cusolver                       0.063198           1
 lincom                                  0.058145        1444
 acc_cufft_makeplan                      0.054630          19
 brmix                                   0.031673          33
 orthch                                  0.028502           1
 setg0                                   0.026531          35
 broyd                                   0.024867          33
 truncate_high_frequency_w1              0.022679      269372
 force_and_stress                        0.018428           1
 choleski                                0.013297          38
 brget                                   0.011274        2931
 map_backward                            0.007434        1386
 stufak                                  0.007255           1
 strnlr                                  0.007004           1
 map_forward                             0.006804        1280
 inisym                                  0.004060           1
 pothar                                  0.003694          36
 brsav                                   0.002696         699
 fornlr                                  0.002454           1
 strelo                                  0.002036           1
 forhar                                  0.001938           2
 fft_gq                                  0.001597          33
 strehar                                 0.001256           1
 strkin                                  0.001190           1
 forloc                                  0.001017           1
 fftbrc_mpi                              0.000884        1333
 brpre                                   0.000758          66
 rsp                                     0.000568           1
 fewald                                  0.000333           1
 chggra                                  0.000252           1
 brgrid                                  0.000180           1
 set_dd_magatom                          0.000160          35
 vectorpot                               0.000140          34
 fordep                                  0.000109           1
 posmap                                  0.000057           2
 rcp                                     0.000028           1
 crpa_reader                             0.000027           1
 acc_cufft_makeplans                     0.000007           3
 potlok_metagga                          0.000003          34
 rotate_active_occupied_orbital          0.000000           1
 redis_pw_over_bands                     0.000000           1
 ---------------------------------------------------------------
  summed up times     429.8561010360718     
 
 Accumulative profile
 ====================
 
             routine name                   CPU           calls
 ---------------------------------------------------------------
 total_time                            429.856101           1
 elmin                                 378.346422           1
 eddav                                 271.799700          37
 set_dd_paw                             90.641847          35
 m_sumb_d                               70.084740      327917
 hamiltmu                               64.018449      107778
 raccmu_                                57.018507      107778
 lapack                                 45.590997      107778
 redis_pw                               27.145792      569172
 densta                                 19.567111          38
 newband                                13.491061      109184
 fftwav_mpi                             11.520096      419876
 fftwav                                 10.958416      419876
 init_acc                               10.903081           1
 m_alltoall_d                           10.734228     1531026
 redis_proj                             10.342111      717666
 force_and_stress                        9.464106           1
 set_charge                              9.021702          33
 fft3d                                   8.190983      628790
 setdij_                                 6.469965          61
 phaser                                  6.186076        1653
 eccp                                    5.676708       60458
 fft3d_mpi                               5.666216      210247
 soft_charge                             4.456995          33
 fftbrc_mpi                              3.734508        1333
 fftbas_plan_mpi                         3.733624        1333
 augmentation_charge                     3.508759          34
 orth1                                   3.423879      323562
 rpromu_acc                              3.411752       82280
 kinhamil                                3.400589      208914
 racc0mu_acc                             3.171112      107778
 w1_copy                                 3.086431      626742
 overl                                   3.000973      357408
 strnlr                                  2.895862           1
 rpro_isp                                2.862906         247
 m_bcast_z                               2.714325      114314
 fftext_mpi                              2.440958      208914
 dfftw_execute                           2.314662        1272
 w1_projall                              2.296775       76846
 setup_precond                           2.199889       60458
 m_bcast_d                               1.782736      215631
 overl_mu                                1.683614      107778
 ggemm                                   1.485328      138710
 pw_charge                               1.010494       36362
 fornlr                                  0.966005           1
 vhamil                                  0.963532      208914
 depsum                                  0.892378          33
 apply_precond                           0.835861      148456
 map_forward                             0.790364        1280
 m_alltoallv_z                           0.671537        1489
 fordep                                  0.635734           1
 acc_init_cublas                         0.606278           1
 map_backward                            0.539505        1386
 potlok                                  0.424447          35
 orthch                                  0.366299           1
 map_scatter                             0.349755        1489
 map_gather                              0.294338        1489
 sphpro_fast                             0.268071           2
 proall                                  0.236238           1
 rspher_all                              0.228016          14
 brmix                                   0.107748          33
 acc_init_cusolver                       0.063198           1
 lincom                                  0.058145        1444
 fft_gq                                  0.057835          33
 acc_cufft_makeplans                     0.054637           3
 acc_cufft_makeplan                      0.054630          19
 broyd                                   0.047212          33
 setg0                                   0.026531          35
 truncate_high_frequency_w1              0.022679      269372
 choleski                                0.013297          38
 brget                                   0.011274        2931
 stufak                                  0.007255           1
 inisym                                  0.004117           1
 pothar                                  0.004081          36
 brsav                                   0.002696         699
 strelo                                  0.002136           1
 forhar                                  0.001983           2
 strehar                                 0.001259           1
 strkin                                  0.001205           1
 fewald                                  0.001075           1
 forloc                                  0.001057           1
 chggra                                  0.000801           1
 brpre                                   0.000758          66
 rsp                                     0.000568           1
 brgrid                                  0.000180           1
 set_dd_magatom                          0.000160          35
 vectorpot                               0.000140          34
 posmap                                  0.000057           2
 rcp                                     0.000028           1
 crpa_reader                             0.000027           1
 potlok_metagga                          0.000003          34
 rotate_active_occupied_orbital          0.000000           1
 redis_pw_over_bands                     0.000000           1
 ---------------------------------------------------------------
 
Profiling took   1.368003  0.656136  0.003504  0.003432 seconds
Profiling took   0.849602 seconds
