 vasp.6.3.2 27Jun22 (build Jul  3 2023 11:46:21) complex                         
 executed on    LinuxNV_CrayMPICH date 2024.04.22  01:51:02
 running on    4 total cores
 distrk:  each k-point on    4 cores,    1 groups
 distr:  one band on NCORE=   1 cores,    4 groups


--------------------------------------------------------------------------------------------------------


 INCAR:
   ADDGRID = True
   ALGO = Normal
   EDIFF = 0.0011
   ENCUT = 520.0
   IBRION = -1
   ICHARG = 0
   ISIF = 3
   ISMEAR = -5
   ISPIN = 2
   ISTART = 1
   KPOINT_BSE = -1 0 0 0
   LAECHG = True
   LASPH = True
   LCHARG = True
   LELF = True
   LORBIT = 11
   LREAL = Auto
   LVHAR = True
   LWAVE = False
   MAGMOM = 3*7.0 19*0.6
   NELM = 1000
   NSW = 0
   PREC = accurate
   SIGMA = 0.05

 POTCAR:    PAW_PBE Gd 23Dec2003                  
 POTCAR:    PAW_PBE Bi 08Apr2002                  
 POTCAR:    PAW_PBE Ru_pv 28Jan2005               
 POTCAR:    PAW_PBE O 08Apr2002                   
 POTCAR:    PAW_PBE Gd 23Dec2003                  
   SHA256 =  58854b40b4643190560b0e2b62d2ab46bea96585f82c6231a0f4f44b8c3188dc Gd/POTCAR             
   COPYR  = (c) Copyright 23Dec2003 Georg Kresse                                                    
   COPYR  = This file is part of the software VASP. Any use, copying, and all other rights are regul
   COPYR  = If you do not have a valid VASP license, you may not use, copy or distribute this file. 
   VRHFIN =Gd : [core=Xe4]                                                                          
   LEXCH  = PE                                                                                      
   EATOM  =  3047.6032 eV,  223.9925 Ry                                                             
                                                                                                    
   TITEL  = PAW_PBE Gd 23Dec2003                                                                    
   LULTRA =        F    use ultrasoft PP ?                                                          
   IUNSCR =        1    unscreen: 0-lin 1-nonlin 2-no                                               
   RPACOR =    2.300    partial core radius                                                         
   POMASS =  157.250; ZVAL   =   18.000    mass and valenz                                          
   RCORE  =    2.800    outmost cutoff radius                                                       
   RWIGS  =    2.800; RWIGS  =    1.482    wigner-seitz radius (au A)                               
   ENMAX  =  256.472; ENMIN  =  192.354 eV                                                          
   RCLOC  =    2.316    cutoff for local pot                                                        
   LCOR   =        T    correct aug charges                                                         
   LPAW   =        T    paw PP                                                                      
   EAUG   =  537.243                                                                                
   DEXC   =    0.000                                                                                
   RMAX   =    2.857    core radius for proj-oper                                                   
   RAUG   =    1.300    factor for augmentation sphere                                              
   RDEP   =    2.921    radius for radial grids                                                     
   RDEPT  =    2.247    core radius for aug-charge                                                  
                                                                                                    
   Atomic configuration                                                                             
   14 entries                                                                                       
     n  l   j            E        occ.                                                              
     1  0  0.50    -50087.2354   2.0000                                                             
     2  0  0.50     -8269.2182   2.0000                                                             
     2  1  1.50     -7357.3672   6.0000                                                             
     3  0  0.50     -1833.2681   2.0000                                                             
     3  1  1.50     -1550.9376   6.0000                                                             
     3  2  2.50     -1178.7204  10.0000                                                             
     4  0  0.50      -369.2978   2.0000                                                             
     4  1  1.50      -276.2601   6.0000                                                             
     4  2  2.50      -147.6611  10.0000                                                             
     5  0  0.50       -49.7260   2.0000                                                             
     6  0  0.50        -4.1254   2.0000                                                             
     5  1  1.50       -27.2538   6.0000                                                             
     5  2  2.50        -2.5337   1.0000                                                             
     4  3  2.50        -8.7140   7.0000                                                             
   Description                                                                                      
     l       E           TYP  RCUT    TYP  RCUT                                                     
     0    -49.7259557     23  2.400                                                                 
     0     -4.1254107     23  2.400                                                                 
     1    -27.2537518     23  2.400                                                                 
     1     20.4087390     23  2.400                                                                 
     2     -2.5337329     23  2.500                                                                 
     2     13.6058260     23  2.500                                                                 
     3     -8.7140389     23  2.800                                                                 
     3     -9.5240782     23  2.800                                                                 
  local pseudopotential read in
  partial core-charges read in
  partial kinetic energy density read in
  atomic valenz-charges read in
  non local Contribution for L=            0  read in
    real space projection operators read in
  non local Contribution for L=            0  read in
    real space projection operators read in
  non local Contribution for L=            1  read in
    real space projection operators read in
  non local Contribution for L=            1  read in
    real space projection operators read in
  non local Contribution for L=            2  read in
    real space projection operators read in
  non local Contribution for L=            2  read in
    real space projection operators read in
  non local Contribution for L=            3  read in
    real space projection operators read in
  non local Contribution for L=            3  read in
    real space projection operators read in
    PAW grid and wavefunctions read in
 
   number of l-projection  operators is LMAX  =            8
   number of lm-projection operators is LMMAX =           32
 
 POTCAR:    PAW_PBE Bi 08Apr2002                  
   SHA256 =  d6b6753ed5db3f0e277fb15e6dbb6699c4bc829850a481068e9e7236faeca489 Bi/POTCAR             
   COPYR  = (c) Copyright 08Apr2002 Georg Kresse                                                    
   COPYR  = This file is part of the software VASP. Any use, copying, and all other rights are regul
   COPYR  = If you do not have a valid VASP license, you may not use, copy or distribute this file. 
   VRHFIN =Bi:                                                                                      
   LEXCH  = PE                                                                                      
   EATOM  =   150.8133 eV,   11.0845 Ry                                                             
                                                                                                    
   TITEL  = PAW_PBE Bi 08Apr2002                                                                    
   LULTRA =        F    use ultrasoft PP ?                                                          
   IUNSCR =        1    unscreen: 0-lin 1-nonlin 2-no                                               
   RPACOR =    2.200    partial core radius                                                         
   POMASS =  208.980; ZVAL   =    5.000    mass and valenz                                          
   RCORE  =    3.000    outmost cutoff radius                                                       
   RWIGS  =    3.090; RWIGS  =    1.635    wigner-seitz radius (au A)                               
   ENMAX  =  105.037; ENMIN  =   78.777 eV                                                          
   ICORE  =        3    local potential                                                             
   LCOR   =        T    correct aug charges                                                         
   LPAW   =        T    paw PP                                                                      
   EAUG   =  265.427                                                                                
   DEXC   =    0.000                                                                                
   RMAX   =    3.067    core radius for proj-oper                                                   
   RAUG   =    1.300    factor for augmentation sphere                                              
   RDEP   =    3.012    radius for radial grids                                                     
   RDEPT  =    2.604    core radius for aug-charge                                                  
                                                                                                    
   Atomic configuration                                                                             
   17 entries                                                                                       
     n  l   j            E        occ.                                                              
     1  0  0.50    -90639.6582   2.0000                                                             
     2  0  0.50    -16282.4667   2.0000                                                             
     2  1  1.50    -13922.8287   6.0000                                                             
     3  0  0.50     -3930.4763   2.0000                                                             
     3  1  1.50     -3256.7013   6.0000                                                             
     3  2  2.50     -2581.6169  10.0000                                                             
     4  0  0.50      -902.2614   2.0000                                                             
     4  1  1.50      -681.5915   6.0000                                                             
     4  2  2.50      -429.8249  10.0000                                                             
     4  3  3.50      -152.6004  14.0000                                                             
     5  0  0.50      -157.7156   2.0000                                                             
     5  1  1.50       -95.8054   6.0000                                                             
     5  2  2.50       -27.0806  10.0000                                                             
     6  0  0.50       -14.4732   2.0000                                                             
     6  1  1.50        -4.5702   3.0000                                                             
     6  2  2.50        -2.7212   0.0000                                                             
     5  3  2.50        -2.7212   0.0000                                                             
   Description                                                                                      
     l       E           TYP  RCUT    TYP  RCUT                                                     
     0    -14.4732299     23  3.000                                                                 
     0    -12.2452434     23  3.000                                                                 
     1     -4.5701666     23  3.000                                                                 
     1    -13.6058260     23  3.000                                                                 
     2     -2.7211652     23  3.000                                                                 
     3     -1.3605826      7  3.000                                                                 
  local pseudopotential read in
  partial core-charges read in
  partial kinetic energy density read in
  kinetic energy density of atom read in
  atomic valenz-charges read in
  non local Contribution for L=            0  read in
    real space projection operators read in
  non local Contribution for L=            0  read in
    real space projection operators read in
  non local Contribution for L=            1  read in
    real space projection operators read in
  non local Contribution for L=            1  read in
    real space projection operators read in
  non local Contribution for L=            2  read in
    real space projection operators read in
    PAW grid and wavefunctions read in
 
   number of l-projection  operators is LMAX  =            5
   number of lm-projection operators is LMMAX =           13
 
 POTCAR:    PAW_PBE Ru_pv 28Jan2005               
   SHA256 =  539bee49bb4e63d8933d8244c4f66bec34c4e5cbe2759ec5d366ad1017752494 Ru_pv/POTCAR          
   COPYR  = (c) Copyright 28Jan2005 Georg Kresse                                                    
   COPYR  = This file is part of the software VASP. Any use, copying, and all other rights are regul
   COPYR  = If you do not have a valid VASP license, you may not use, copy or distribute this file. 
   VRHFIN =Ru: 4p5s4d                                                                               
   LEXCH  = PE                                                                                      
   EATOM  =  1873.4746 eV,  137.6965 Ry                                                             
                                                                                                    
   TITEL  = PAW_PBE Ru_pv 28Jan2005                                                                 
   LULTRA =        F    use ultrasoft PP ?                                                          
   IUNSCR =        1    unscreen: 0-lin 1-nonlin 2-no                                               
   RPACOR =    2.170    partial core radius                                                         
   POMASS =  101.070; ZVAL   =   14.000    mass and valenz                                          
   RCORE  =    2.500    outmost cutoff radius                                                       
   RWIGS  =    2.650; RWIGS  =    1.402    wigner-seitz radius (au A)                               
   ENMAX  =  240.049; ENMIN  =  180.037 eV                                                          
   ICORE  =        3    local potential                                                             
   LCOR   =        T    correct aug charges                                                         
   LPAW   =        T    paw PP                                                                      
   EAUG   =  430.792                                                                                
   DEXC   =    0.000                                                                                
   RMAX   =    2.546    core radius for proj-oper                                                   
   RAUG   =    1.300    factor for augmentation sphere                                              
   RDEP   =    2.520    radius for radial grids                                                     
   RDEPT  =    2.044    core radius for aug-charge                                                  
                                                                                                    
   Atomic configuration                                                                             
   11 entries                                                                                       
     n  l   j            E        occ.                                                              
     1  0  0.50    -21933.2692   2.0000                                                             
     2  0  0.50     -3153.4096   2.0000                                                             
     2  1  1.50     -2823.9548   6.0000                                                             
     3  0  0.50      -555.3322   2.0000                                                             
     3  1  1.50      -447.1024   6.0000                                                             
     3  2  2.50      -273.0570  10.0000                                                             
     4  0  0.50       -76.3589   2.0000                                                             
     4  1  1.50       -46.4050   6.0000                                                             
     4  2  2.50        -5.2029   7.0000                                                             
     5  0  0.50        -4.2392   1.0000                                                             
     4  3  2.50        -1.3606   0.0000                                                             
   Description                                                                                      
     l       E           TYP  RCUT    TYP  RCUT                                                     
     1    -46.4050190     23  2.100                                                                 
     1      4.0817478     23  2.100                                                                 
     2     -5.2028758     23  2.500                                                                 
     2     -6.5634584     23  2.500                                                                 
     0     -4.2392192     23  2.500                                                                 
     0      7.0918828     23  2.500                                                                 
     3     -5.4423304     23  2.500                                                                 
  local pseudopotential read in
  partial core-charges read in
  partial kinetic energy density read in
  atomic valenz-charges read in
  non local Contribution for L=            1  read in
    real space projection operators read in
  non local Contribution for L=            1  read in
    real space projection operators read in
  non local Contribution for L=            2  read in
    real space projection operators read in
  non local Contribution for L=            2  read in
    real space projection operators read in
  non local Contribution for L=            0  read in
    real space projection operators read in
  non local Contribution for L=            0  read in
    real space projection operators read in
    PAW grid and wavefunctions read in
 
   number of l-projection  operators is LMAX  =            6
   number of lm-projection operators is LMMAX =           18
 
 POTCAR:    PAW_PBE O 08Apr2002                   
   SHA256 =  818f92134a0a090dccd8ba1447fa70422a3b330e708bb4f08108d8ae51209ddf O/POTCAR              
   COPYR  = (c) Copyright 08Apr2002 Georg Kresse                                                    
   COPYR  = This file is part of the software VASP. Any use, copying, and all other rights are regul
   COPYR  = If you do not have a valid VASP license, you may not use, copy or distribute this file. 
   VRHFIN =O: s2p4                                                                                  
   LEXCH  = PE                                                                                      
   EATOM  =   432.3788 eV,   31.7789 Ry                                                             
                                                                                                    
   TITEL  = PAW_PBE O 08Apr2002                                                                     
   LULTRA =        F    use ultrasoft PP ?                                                          
   IUNSCR =        1    unscreen: 0-lin 1-nonlin 2-no                                               
   RPACOR =    1.200    partial core radius                                                         
   POMASS =   16.000; ZVAL   =    6.000    mass and valenz                                          
   RCORE  =    1.520    outmost cutoff radius                                                       
   RWIGS  =    1.550; RWIGS  =    0.820    wigner-seitz radius (au A)                               
   ENMAX  =  400.000; ENMIN  =  300.000 eV                                                          
   ICORE  =        2    local potential                                                             
   LCOR   =        T    correct aug charges                                                         
   LPAW   =        T    paw PP                                                                      
   EAUG   =  605.392                                                                                
   DEXC   =    0.000                                                                                
   RMAX   =    1.553    core radius for proj-oper                                                   
   RAUG   =    1.300    factor for augmentation sphere                                              
   RDEP   =    1.550    radius for radial grids                                                     
   RDEPT  =    1.329    core radius for aug-charge                                                  
                                                                                                    
   Atomic configuration                                                                             
    4 entries                                                                                       
     n  l   j            E        occ.                                                              
     1  0  0.50      -514.6923   2.0000                                                             
     2  0  0.50       -23.9615   2.0000                                                             
     2  1  0.50        -9.0305   4.0000                                                             
     3  2  1.50        -9.5241   0.0000                                                             
   Description                                                                                      
     l       E           TYP  RCUT    TYP  RCUT                                                     
     0    -23.9615318     23  1.200                                                                 
     0     -9.5240782     23  1.200                                                                 
     1     -9.0304911     23  1.520                                                                 
     1      8.1634956     23  1.520                                                                 
     2     -9.5240782      7  1.500                                                                 
  local pseudopotential read in
  partial core-charges read in
  partial kinetic energy density read in
  kinetic energy density of atom read in
  atomic valenz-charges read in
  non local Contribution for L=            0  read in
    real space projection operators read in
  non local Contribution for L=            0  read in
    real space projection operators read in
  non local Contribution for L=            1  read in
    real space projection operators read in
  non local Contribution for L=            1  read in
    real space projection operators read in
    PAW grid and wavefunctions read in
 
   number of l-projection  operators is LMAX  =            4
   number of lm-projection operators is LMMAX =            8
 
 Optimization of the real space projectors (new method)

 maximal supplied QI-value         = 13.42
 optimisation between [QCUT,QGAM] = [ 11.67, 23.35] = [ 38.16,152.62] Ry 
 Optimized for a Real-space Cutoff    1.63 Angstroem

   l    n(q)    QCUT    max X(q) W(low)/X(q) W(high)/X(q)  e(spline) 
   0     11    11.673    10.501    0.14E-04    0.17E-05    0.21E-07
   0     11    11.673     9.148    0.21E-04    0.32E-05    0.45E-07
   1     11    11.673     4.035    0.33E-05    0.11E-04    0.84E-07
   1     11    11.673     4.388    0.11E-04    0.47E-04    0.34E-06
   2     10    11.673    20.656    0.12E-04    0.28E-04    0.54E-06
   2     10    11.673    12.651    0.11E-04    0.26E-04    0.51E-06
   3     10    11.673    61.921    0.19E-03    0.22E-03    0.23E-06
   3     10    11.673    48.328    0.20E-03    0.23E-03    0.23E-06
 Optimization of the real space projectors (new method)

 maximal supplied QI-value         = 12.47
 optimisation between [QCUT,QGAM] = [ 11.60, 23.32] = [ 37.68,152.32] Ry 
 Optimized for a Real-space Cutoff    1.63 Angstroem

   l    n(q)    QCUT    max X(q) W(low)/X(q) W(high)/X(q)  e(spline) 
   0     11    11.599    93.365    0.41E-04    0.18E-04    0.34E-06
   0     11    11.599    75.373    0.44E-04    0.20E-04    0.37E-06
   1     11    11.599    32.978    0.10E-03    0.17E-03    0.40E-06
   1     11    11.599    35.433    0.11E-03    0.18E-03    0.44E-06
   2     10    11.599     8.108    0.42E-04    0.24E-04    0.15E-06
 Optimization of the real space projectors (new method)

 maximal supplied QI-value         = 15.12
 optimisation between [QCUT,QGAM] = [ 11.64, 23.28] = [ 37.95,151.78] Ry 
 Optimized for a Real-space Cutoff    1.49 Angstroem

   l    n(q)    QCUT    max X(q) W(low)/X(q) W(high)/X(q)  e(spline) 
   1     10    11.641     3.180    0.30E-04    0.36E-05    0.54E-07
   1     10    11.641     5.351    0.12E-03    0.51E-04    0.30E-06
   2      9    11.641    66.565    0.22E-03    0.78E-04    0.20E-06
   2      9    11.641    63.466    0.22E-03    0.79E-04    0.20E-06
   0     10    11.641    85.644    0.61E-04    0.23E-04    0.12E-06
   0     10    11.641    44.119    0.56E-04    0.21E-04    0.11E-06
 Optimization of the real space projectors (new method)

 maximal supplied QI-value         = 24.76
 optimisation between [QCUT,QGAM] = [ 11.64, 23.27] = [ 37.91,151.63] Ry 
 Optimized for a Real-space Cutoff    1.14 Angstroem

   l    n(q)    QCUT    max X(q) W(low)/X(q) W(high)/X(q)  e(spline) 
   0      8    11.635    20.381    0.10E-03    0.33E-03    0.24E-06
   0      8    11.635    15.268    0.11E-03    0.35E-03    0.26E-06
   1      7    11.635     5.964    0.24E-03    0.31E-03    0.30E-06
   1      7    11.635     5.382    0.22E-03    0.25E-03    0.26E-06
  PAW_PBE Gd 23Dec2003                  :
 energy of atom  1       EATOM=-3047.6032
 kinetic energy error for atom=    0.0019 (will be added to EATOM!!)
  PAW_PBE Bi 08Apr2002                  :
 energy of atom  2       EATOM= -150.8133
 kinetic energy error for atom=    0.0001 (will be added to EATOM!!)
  PAW_PBE Ru_pv 28Jan2005               :
 energy of atom  3       EATOM=-1873.4746
 kinetic energy error for atom=    0.0068 (will be added to EATOM!!)
  PAW_PBE O 08Apr2002                   :
 energy of atom  4       EATOM= -432.3788
 kinetic energy error for atom=    0.0208 (will be added to EATOM!!)
 
 
 POSCAR: Gd3 Bi1 Ru4 O14
  positions in direct lattice
  No initial velocities read in
 exchange correlation table for  LEXCH =        8
   RHO(1)=    0.500       N(1)  =     2000
   RHO(2)=  100.500       N(2)  =     4000

 VTST: version 4.2, (08/11/21)

 CHAIN: initializing optimizer
 
 OPT: Using VASP Dynamics algorithm
 CHAIN: Read ICHAIN             0
 
 POSCAR: Gd3 Bi1 Ru4 O14
  positions in direct lattice
  No initial velocities read in
 


--------------------------------------------------------------------------------------------------------


 ion  position               nearest neighbor table
   1  0.500  0.000  0.500-  21 2.22  22 2.22  10 2.52  16 2.52  15 2.52   9 2.52  14 2.54  20 2.54
                             4 3.66   4 3.66
   2  0.000  0.500  0.500-  21 2.22  22 2.22  11 2.52  17 2.52  15 2.52   9 2.52  13 2.54  19 2.54
                             4 3.66   4 3.66
   3  0.500  0.500  0.000-  21 2.22  22 2.22  10 2.52  16 2.52  11 2.52  17 2.52  12 2.54  18 2.54
                             4 3.66   4 3.66
   4  0.500  0.500  0.500-  21 2.27  22 2.27  19 2.53  20 2.53  13 2.53  14 2.53  12 2.53  18 2.53
                             3 3.66   3 3.66   1 3.66   2 3.66   1 3.66   2 3.66
   5  0.000  0.000  0.000-   9 2.01  15 2.01  11 2.01  10 2.01  16 2.01  17 2.01
   6  0.000  0.500  0.000-  12 2.00  18 2.00  13 2.00  19 2.00  11 2.02  17 2.02
   7  0.500  0.000  0.000-  12 2.00  18 2.00  14 2.00  20 2.00  10 2.02  16 2.02
   8  0.000  0.000  0.500-  13 2.00  14 2.00  19 2.00  20 2.00   9 2.02  15 2.02
   9  0.919  0.919  0.331-   5 2.01   8 2.02   1 2.52   2 2.52
  10  0.331  0.919  0.919-   5 2.01   7 2.02   3 2.52   1 2.52
  11  0.919  0.331  0.919-   5 2.01   6 2.02   3 2.52   2 2.52
  12  0.330  0.330  0.920-   6 2.00   7 2.00   4 2.53   3 2.54
  13  0.920  0.330  0.330-   8 2.00   6 2.00   4 2.53   2 2.54
  14  0.330  0.920  0.330-   8 2.00   7 2.00   4 2.53   1 2.54
  15  0.081  0.081  0.669-   5 2.01   8 2.02   1 2.52   2 2.52
  16  0.669  0.081  0.081-   5 2.01   7 2.02   3 2.52   1 2.52
  17  0.081  0.669  0.081-   5 2.01   6 2.02   3 2.52   2 2.52
  18  0.670  0.670  0.080-   6 2.00   7 2.00   4 2.53   3 2.54
  19  0.080  0.670  0.670-   8 2.00   6 2.00   4 2.53   2 2.54
  20  0.670  0.080  0.670-   8 2.00   7 2.00   4 2.53   1 2.54
  21  0.627  0.627  0.627-   1 2.22   2 2.22   3 2.22   4 2.27
  22  0.373  0.373  0.373-   1 2.22   2 2.22   3 2.22   4 2.27
 
  LATTYP: Found a trigonal (rhomboedric) cell.
 ALAT       =     7.3150135149
 COS(alpha) =     0.5026726540
  
  Lattice vectors:
  
 A1 = (   6.3406290000,  -3.6477180000,   0.0000000000)
 A2 = (   6.3406290000,   3.6477180000,   0.0000000000)
 A3 = (   4.2421220000,   0.0000000000,   5.9593470000)


Analysis of symmetry for initial positions (statically):
=====================================================================
 Subroutine PRICEL returns:
 Original cell was already a primitive cell.
 

 Routine SETGRP: Setting up the symmetry group for a 
 trigonal (rhombohedral) supercell.


 Subroutine GETGRP returns: Found 12 space group operations
 (whereof 12 operations were pure point group operations)
 out of a pool of 12 trial point group operations.


The static configuration has the point symmetry D_3d.


Analysis of symmetry for dynamics (positions and initial velocities):
=====================================================================
 Subroutine PRICEL returns:
 Original cell was already a primitive cell.
 

 Routine SETGRP: Setting up the symmetry group for a 
 trigonal (rhombohedral) supercell.


 Subroutine GETGRP returns: Found 12 space group operations
 (whereof 12 operations were pure point group operations)
 out of a pool of 12 trial point group operations.


The dynamic configuration has the point symmetry D_3d.


Analysis of structural, dynamic, and magnetic symmetry:
=====================================================================
 Subroutine PRICEL returns:
 Original cell was already a primitive cell.
 

 Routine SETGRP: Setting up the symmetry group for a 
 trigonal (rhombohedral) supercell.


 Subroutine GETGRP returns: Found 12 space group operations
 (whereof 12 operations were pure point group operations)
 out of a pool of 12 trial point group operations.


The overall configuration has the point symmetry D_3d.


 Subroutine INISYM returns: Found 12 space group operations
 (whereof 12 operations are pure point group operations),
 and found     1 'primitive' translations


----------------------------------------------------------------------------------------

                                     Primitive cell                                     

  volume of cell :     275.6654

  direct lattice vectors                    reciprocal lattice vectors
     6.340629000 -3.647718000  0.000000000     0.078856530 -0.137072000 -0.056133503
     6.340629000  3.647718000  0.000000000     0.078856530  0.137072000 -0.056133503
     4.242122000  0.000000000  5.959347000    -0.000000000  0.000000000  0.167803620

  length of vectors
     7.315013515  7.315013515  7.315013037     0.167803622  0.167803622  0.167803620

  position of ions in fractional coordinates (direct lattice)
     0.500000000  0.000000000  0.500000000
     0.000000000  0.500000000  0.500000000
     0.500000000  0.500000000  0.000000000
     0.500000000  0.500000000  0.500000000
     0.000000000  0.000000000  0.000000000
     0.000000000  0.500000000  0.000000000
     0.500000000  0.000000000  0.000000000
     0.000000000  0.000000000  0.500000000
     0.918765000  0.918765000  0.331182000
     0.331182000  0.918765000  0.918765000
     0.918765000  0.331182000  0.918765000
     0.329997000  0.329997000  0.919782000
     0.919782000  0.329997000  0.329997000
     0.329997000  0.919782000  0.329997000
     0.081235000  0.081235000  0.668818000
     0.668818000  0.081235000  0.081235000
     0.081235000  0.668818000  0.081235000
     0.670003000  0.670003000  0.080218000
     0.080218000  0.670003000  0.670003000
     0.670003000  0.080218000  0.670003000
     0.626718000  0.626718000  0.626718000
     0.373282000  0.373282000  0.373282000

  ion indices of the primitive-cell ions
   primitive index   ion index
                 1           1
                 2           2
                 3           3
                 4           4
                 5           5
                 6           6
                 7           7
                 8           8
                 9           9
                10          10
                11          11
                12          12
                13          13
                14          14
                15          15
                16          16
                17          17
                18          18
                19          19
                20          20
                21          21
                22          22

----------------------------------------------------------------------------------------

 
 
 KPOINTS: Kpoints from vasprun.xml                

Automatic generation of k-mesh.
 Grid dimensions read from file:
 generate k-points for:    4    4    4

 Generating k-lattice:

  Cartesian coordinates                     Fractional coordinates (reciprocal lattice)
     0.019714132 -0.034268000 -0.014033376     0.250000000  0.000000000  0.000000000
     0.019714132  0.034268000 -0.014033376     0.000000000  0.250000000  0.000000000
    -0.000000000  0.000000000  0.041950905     0.000000000  0.000000000  0.250000000

  Length of vectors
     0.041950905  0.041950905  0.041950905

  Shift w.r.t. Gamma in fractional coordinates (k-lattice)
     0.000000000  0.000000000  0.000000000

 TETIRR: Found     30 inequivalent tetrahedra from      384
 
 Subroutine IBZKPT returns following result:
 ===========================================
 
 Found     13 irreducible k-points:
 
 Following reciprocal coordinates:
            Coordinates               Weight
  0.000000  0.000000  0.000000      1.000000
  0.250000  0.000000  0.000000      6.000000
  0.500000  0.000000  0.000000      3.000000
  0.250000  0.250000  0.000000      6.000000
  0.500000  0.250000  0.000000     12.000000
 -0.250000  0.250000  0.000000      6.000000
  0.500000  0.500000  0.000000      3.000000
  0.250000  0.250000  0.250000      2.000000
  0.500000  0.250000  0.250000      6.000000
 -0.250000  0.250000  0.250000      6.000000
  0.500000  0.500000  0.250000      6.000000
 -0.250000  0.500000  0.250000      6.000000
  0.500000  0.500000  0.500000      1.000000
 
 Following cartesian coordinates:
            Coordinates               Weight
  0.000000  0.000000  0.000000      1.000000
  0.019714 -0.034268 -0.014033      6.000000
  0.039428 -0.068536 -0.028067      3.000000
  0.039428  0.000000 -0.028067      6.000000
  0.059142 -0.034268 -0.042100     12.000000
  0.000000  0.068536  0.000000      6.000000
  0.078857  0.000000 -0.056134      3.000000
  0.039428  0.000000  0.013884      2.000000
  0.059142 -0.034268 -0.000149      6.000000
  0.000000  0.068536  0.041951      6.000000
  0.078857  0.000000 -0.014183      6.000000
  0.019714  0.102804  0.027918      6.000000
  0.078857  0.000000  0.027768      1.000000
 


--------------------------------------------------------------------------------------------------------




 Dimension of arrays:
   k-points           NKPTS =     13   k-points in BZ     NKDIM =     13   number of bands    NBANDS=    136
   number of dos      NEDOS =    301   number of ions     NIONS =     22
   non local maximal  LDIM  =      8   non local SUM 2l+1 LMDIM =     32
   total plane-waves  NPLWV = 157464
   max r-space proj   IRMAX =  10359   max aug-charges    IRDMAX= 435449
   dimension x,y,z NGX =    54 NGY =   54 NGZ =   54
   dimension x,y,z NGXF=   108 NGYF=  108 NGZF=  108
   support grid    NGXF=   216 NGYF=  216 NGZF=  216
   ions per type =               3   1   4  14
   NGX,Y,Z   is equivalent  to a cutoff of  12.27, 12.27, 12.27 a.u.
   NGXF,Y,Z  is equivalent  to a cutoff of  24.54, 24.54, 24.54 a.u.

 SYSTEM =  unknown system                          
 POSCAR =  Gd3 Bi1 Ru4 O14                         

 Startparameter for this run:
   NWRITE =      2    write-flag & timer
   PREC   = accura    normal or accurate (medium, high low for compatibility)
   ISTART =      0    job   : 0-new  1-cont  2-samecut
   ICHARG =      2    charge: 1-file 2-atom 10-const
   ISPIN  =      2    spin polarized calculation?
   LNONCOLLINEAR =      F non collinear calculations
   LSORBIT =      F    spin-orbit coupling
   INIWAV =      1    electr: 0-lowe 1-rand  2-diag
   LASPH  =      T    aspherical Exc in radial PAW
 Electronic Relaxation 1
   ENCUT  =  520.0 eV  38.22 Ry    6.18 a.u.  13.60 13.60 13.60*2*pi/ulx,y,z
   ENINI  =  520.0     initial cutoff
   ENAUG  =  605.4 eV  augmentation charge cutoff
   NELM   =   1000;   NELMIN=  2; NELMDL=  0     # of ELM steps 
   EDIFF  = 0.1E-02   stopping-criterion for ELM
   LREAL  =      T    real-space projection
   NLSPLINE    = F    spline interpolate recip. space projectors
   LCOMPAT=      F    compatible to vasp.4.4
   GGA_COMPAT  = T    GGA compatible to vasp.4.4-vasp.4.6
   LMAXPAW     = -100 max onsite density
   LMAXMIX     =    2 max onsite mixed and CHGCAR
   VOSKOWN=      0    Vosko Wilk Nusair interpolation
   ROPT   =   -0.00025  -0.00025  -0.00025  -0.00025
 Ionic relaxation
   EDIFFG = 0.1E-01   stopping-criterion for IOM
   NSW    =      0    number of steps for IOM
   NBLOCK =      1;   KBLOCK =      1    inner block; outer block 
   IBRION =     -1    ionic relax: 0-MD 1-quasi-New 2-CG
   NFREE  =      0    steps in history (QN), initial steepest desc. (CG)
   ISIF   =      3    stress and relaxation
   IWAVPR =     10    prediction:  0-non 1-charg 2-wave 3-comb
   ISYM   =      2    0-nonsym 1-usesym 2-fastsym
   LCORR  =      T    Harris-Foulkes like correction to forces

   POTIM  = 0.5000    time-step for ionic-motion
   TEIN   =    0.0    initial temperature
   TEBEG  =    0.0;   TEEND  =   0.0 temperature during run
   SMASS  =  -3.00    Nose mass-parameter (am)
   estimated Nose-frequenzy (Omega)   =  0.10E-29 period in steps = 0.13E+47 mass=  -0.122E-26a.u.
   SCALEE = 1.0000    scale energy and forces
   NPACO  =    256;   APACO  = 10.0  distance and # of slots for P.C.
   PSTRESS=    0.0 pullay stress

  Mass of Ions in am
   POMASS = 157.25208.98101.07 16.00
  Ionic Valenz
   ZVAL   =  18.00  5.00 14.00  6.00
  Atomic Wigner-Seitz radii
   RWIGS  =  -1.00 -1.00 -1.00 -1.00
  virtual crystal weights 
   VCA    =   1.00  1.00  1.00  1.00
   NELECT =     199.0000    total number of electrons
   NUPDOWN=      -1.0000    fix difference up-down

 DOS related values:
   EMIN   =  10.00;   EMAX   =-10.00  energy-range for DOS
   EFERMI =   0.00
   ISMEAR =    -5;   SIGMA  =   0.05  broadening in eV -4-tet -1-fermi 0-gaus

 Electronic relaxation 2 (details)
   IALGO  =     38    algorithm
   LDIAG  =      T    sub-space diagonalisation (order eigenvalues)
   LSUBROT=      F    optimize rotation matrix (better conditioning)
   TURBO    =      0    0=normal 1=particle mesh
   IRESTART =      0    0=no restart 2=restart with 2 vectors
   NREBOOT  =      0    no. of reboots
   NMIN     =      0    reboot dimension
   EREF     =   0.00    reference energy to select bands
   IMIX   =      4    mixing-type and parameters
     AMIX     =   0.40;   BMIX     =  1.00
     AMIX_MAG =   1.60;   BMIX_MAG =  1.00
     AMIN     =   0.10
     WC   =   100.;   INIMIX=   1;  MIXPRE=   1;  MAXMIX= -45

 Intra band minimization:
   WEIMIN = 0.0000     energy-eigenvalue tresh-hold
   EBREAK =  0.20E-05  absolut break condition
   DEPER  =   0.30     relativ break condition  

   TIME   =   0.40     timestep for ELM

  volume/ion in A,a.u.               =      12.53        84.56
  Fermi-wavevector in a.u.,A,eV,Ry     =   1.468583  2.775219 29.344167  2.156735
  Thomas-Fermi vector in A             =   2.584063
 
 Write flags
   LWAVE        =      F    write WAVECAR
   LDOWNSAMPLE  =      F    k-point downsampling of WAVECAR
   LCHARG       =      T    write CHGCAR
   LVTOT        =      F    write LOCPOT, total local potential
   LVHAR        =      T    write LOCPOT, Hartree potential only
   LELF         =      T    write electronic localiz. function (ELF)
   LORBIT       =     11    0 simple, 1 ext, 2 COOP (PROOUT), +10 PAW based schemes


 Dipole corrections
   LMONO  =      F    monopole corrections only (constant potential shift)
   LDIPOL =      F    correct potential (dipole corrections)
   IDIPOL =      0    1-x, 2-y, 3-z, 4-all directions 
   EPSILON=  1.0000000 bulk dielectric constant

 Exchange correlation treatment:
   GGA     =    --    GGA type
   LEXCH   =     8    internal setting for exchange type
   LIBXC   =     F    Libxc                    
   VOSKOWN =     0    Vosko Wilk Nusair interpolation
   LHFCALC =     F    Hartree Fock is set to
   LHFONE  =     F    Hartree Fock one center treatment
   AEXX    =    0.0000 exact exchange contribution

 Linear response parameters
   LEPSILON=     F    determine dielectric tensor
   LRPA    =     F    only Hartree local field effects (RPA)
   LNABLA  =     F    use nabla operator in PAW spheres
   LVEL    =     F    velocity operator in full k-point grid
   CSHIFT  =0.1000    complex shift for real part using Kramers Kronig
   OMEGAMAX=  -1.0    maximum frequency
   DEG_THRESHOLD= 0.2000000E-02 threshold for treating states as degnerate
   RTIME   =   -0.100 relaxation time in fs
  (WPLASMAI=    0.000 imaginary part of plasma frequency in eV, 0.658/RTIME)
   DFIELD  = 0.0000000 0.0000000 0.0000000 field for delta impulse in time
 
  Optional k-point grid parameters
   LKPOINTS_OPT  =     F    use optional k-point grid
   KPOINTS_OPT_MODE=     1    mode for optional k-point grid
 
 Orbital magnetization related:
   ORBITALMAG=     F  switch on orbital magnetization
   LCHIMAG   =     F  perturbation theory with respect to B field
   DQ        =  0.001000  dq finite difference perturbation B field
   LLRAUG    =     F  two centre corrections for induced B field



--------------------------------------------------------------------------------------------------------


 Static calculation
 charge density and potential will be updated during run
 spin polarized calculation
 Variant of blocked Davidson
 Davidson routine will perform the subspace rotation
 perform sub-space diagonalisation
    after iterative eigenvector-optimisation
 modified Broyden-mixing scheme, WC =      100.0
 initial mixing is a Kerker type mixing with AMIX =  0.4000 and BMIX =      1.0000
 Hartree-type preconditioning will be used
 using additional bands            36
 real space projection scheme for non local part
 use partial core corrections
 calculate Harris-corrections to forces 
   (improved forces if not selfconsistent)
 use gradient corrections 
 use of overlap-Matrix (Vanderbilt PP)
 Fermi weights with tetrahedron method with Bloechl corrections


--------------------------------------------------------------------------------------------------------


  energy-cutoff  :      520.00
  volume of cell :      275.67
      direct lattice vectors                 reciprocal lattice vectors
     6.340629000 -3.647718000  0.000000000     0.078856530 -0.137072000 -0.056133503
     6.340629000  3.647718000  0.000000000     0.078856530  0.137072000 -0.056133503
     4.242122000  0.000000000  5.959347000    -0.000000000  0.000000000  0.167803620

  length of vectors
     7.315013515  7.315013515  7.315013037     0.167803622  0.167803622  0.167803620


 
 k-points in units of 2pi/SCALE and weight: Kpoints from vasprun.xml                
   0.00000000  0.00000000  0.00000000       0.016
   0.01971413 -0.03426800 -0.01403338       0.094
   0.03942826 -0.06853600 -0.02806675       0.047
   0.03942826  0.00000000 -0.02806675       0.094
   0.05914240 -0.03426800 -0.04210013       0.188
   0.00000000  0.06853600  0.00000000       0.094
   0.07885653  0.00000000 -0.05613350       0.047
   0.03942826  0.00000000  0.01388415       0.031
   0.05914240 -0.03426800 -0.00014922       0.094
   0.00000000  0.06853600  0.04195091       0.094
   0.07885653  0.00000000 -0.01418260       0.094
   0.01971413  0.10280400  0.02791753       0.094
   0.07885653  0.00000000  0.02776831       0.016
 
 k-points in reciprocal lattice and weights: Kpoints from vasprun.xml                
   0.00000000  0.00000000  0.00000000       0.016
   0.25000000  0.00000000  0.00000000       0.094
   0.50000000  0.00000000  0.00000000       0.047
   0.25000000  0.25000000  0.00000000       0.094
   0.50000000  0.25000000  0.00000000       0.188
  -0.25000000  0.25000000  0.00000000       0.094
   0.50000000  0.50000000  0.00000000       0.047
   0.25000000  0.25000000  0.25000000       0.031
   0.50000000  0.25000000  0.25000000       0.094
  -0.25000000  0.25000000  0.25000000       0.094
   0.50000000  0.50000000  0.25000000       0.094
  -0.25000000  0.50000000  0.25000000       0.094
   0.50000000  0.50000000  0.50000000       0.016
 
 position of ions in fractional coordinates (direct lattice) 
   0.50000000  0.00000000  0.50000000
   0.00000000  0.50000000  0.50000000
   0.50000000  0.50000000  0.00000000
   0.50000000  0.50000000  0.50000000
   0.00000000  0.00000000  0.00000000
   0.00000000  0.50000000  0.00000000
   0.50000000  0.00000000  0.00000000
   0.00000000  0.00000000  0.50000000
   0.91876500  0.91876500  0.33118200
   0.33118200  0.91876500  0.91876500
   0.91876500  0.33118200  0.91876500
   0.32999700  0.32999700  0.91978200
   0.91978200  0.32999700  0.32999700
   0.32999700  0.91978200  0.32999700
   0.08123500  0.08123500  0.66881800
   0.66881800  0.08123500  0.08123500
   0.08123500  0.66881800  0.08123500
   0.67000300  0.67000300  0.08021800
   0.08021800  0.67000300  0.67000300
   0.67000300  0.08021800  0.67000300
   0.62671800  0.62671800  0.62671800
   0.37328200  0.37328200  0.37328200
 
 position of ions in cartesian coordinates  (Angst):
   5.29137550 -1.82385900  2.97967350
   5.29137550  1.82385900  2.97967350
   6.34062900  0.00000000  0.00000000
   8.46169000  0.00000000  2.97967350
   0.00000000  0.00000000  0.00000000
   3.17031450  1.82385900  0.00000000
   3.17031450 -1.82385900  0.00000000
   2.12106100  0.00000000  2.97967350
  13.05601045  0.00000000  1.97362846
  11.82296342  2.14333709  5.47523945
  11.82296342 -2.14333709  5.47523945
   8.08660455 -0.00000000  5.48130010
   9.32427250 -2.15136936  1.96656663
   9.32427250  2.15136936  1.96656663
   3.86736955  0.00000000  3.98571854
   5.10041658 -2.14333709  0.48410755
   5.10041658  2.14333709  0.48410755
   8.83677545  0.00000000  0.47804690
   7.59910750  2.15136936  3.99278037
   7.59910750 -2.15136936  3.99278037
  10.60618687  0.00000000  3.73483003
   6.31719313  0.00000000  2.22451697
 


--------------------------------------------------------------------------------------------------------


 k-point   1 :   0.0000 0.0000 0.0000  plane waves:    7391
 k-point   2 :   0.2500 0.0000 0.0000  plane waves:    7426
 k-point   3 :   0.5000 0.0000 0.0000  plane waves:    7408
 k-point   4 :   0.2500 0.2500 0.0000  plane waves:    7417
 k-point   5 :   0.5000 0.2500 0.0000  plane waves:    7418
 k-point   6 :  -0.2500 0.2500 0.0000  plane waves:    7432
 k-point   7 :   0.5000 0.5000 0.0000  plane waves:    7390
 k-point   8 :   0.2500 0.2500 0.2500  plane waves:    7453
 k-point   9 :   0.5000 0.2500 0.2500  plane waves:    7436
 k-point  10 :  -0.2500 0.2500 0.2500  plane waves:    7417
 k-point  11 :   0.5000 0.5000 0.2500  plane waves:    7408
 k-point  12 :  -0.2500 0.5000 0.2500  plane waves:    7434
 k-point  13 :   0.5000 0.5000 0.5000  plane waves:    7420

 maximum and minimum number of plane-waves per node :      7453     7390

 maximum number of plane-waves:      7453
 maximum index in each direction: 
   IXMAX=   13   IYMAX=   13   IZMAX=   13
   IXMIN=  -14   IYMIN=  -14   IZMIN=  -14


 serial   3D FFT for wavefunctions
 parallel 3D FFT for charge:
    minimum data exchange during FFTs selected (reduces bandwidth)


 total amount of memory used by VASP MPI-rank0   253924. kBytes
=======================================================================

   base      :      30000. kBytes
   nonlr-proj:      21764. kBytes
   fftplans  :      46964. kBytes
   grid      :      43390. kBytes
   one-center:       2162. kBytes
   wavefun   :     109644. kBytes
 
     INWAV:  cpu time      0.0003: real time      0.0005
 Broyden mixing: mesh for mixing (old mesh)
   NGX = 27   NGY = 27   NGZ = 27
  (NGX  =108   NGY  =108   NGZ  =108)
  gives a total of  19683 points

 initial charge density was supplied:
 charge density of overlapping atoms calculated
 number of electron     199.0000000 magnetization      32.4000000
 keeping initial charge density in first step


--------------------------------------------------------------------------------------------------------


 Maximum index for non-local projection operator         10005
 Maximum index for augmentation-charges        105617 (set IRDMAX)


--------------------------------------------------------------------------------------------------------


 First call to EWALD:  gamma=   0.272
 Maximum number of real-space cells 3x 3x 3
 Maximum number of reciprocal cells 3x 3x 3

    FEWALD:  cpu time      0.0016: real time      0.0016


--------------------------------------- Iteration      1(   1)  ---------------------------------------


    POTLOK:  cpu time      0.1207: real time      0.1996
    SETDIJ:  cpu time      2.4412: real time      2.4420
     EDDAV:  cpu time      5.6226: real time      5.6270
 BZINTS: Fermi energy:   28.575144;  199.000000 electrons
         Band energy: 0.138821E+04;  BLOECHL correction:   -0.503101
       DOS:  cpu time      0.0385: real time      0.0385
    --------------------------------------------
      LOOP:  cpu time      8.2231: real time      8.3072

 eigenvalue-minimisations  : 12192
 total energy-change (2. order) : 0.2855197E+04  (-0.8403707E+04)
 number of electron     199.0000000 magnetization      32.4000000
 augmentation part      199.0000000 magnetization      32.4000000

 Free energy of the ion-electron system (eV)
  ---------------------------------------------------
  alpha Z        PSCENC =      1286.67603841
  Ewald energy   TEWEN  =    -17262.38945859
  -Hartree energ DENC   =     -5729.03316209
  -exchange      EXHF   =         0.00000000
  -V(xc)+E(xc)   XCENC  =       790.62915747
  PAW double counting   =     18869.64844474   -19329.03991292
  entropy T*S    EENTRO =         0.00000000
  eigenvalues    EBANDS =      1388.20626363
  atomic energy  EATOM  =     22840.50007300
  Solvation  Ediel_sol  =         0.00000000
  ---------------------------------------------------
  free energy    TOTEN  =      2855.19744365 eV

  energy without entropy =     2855.19744365  energy(sigma->0) =     2855.19744365


--------------------------------------------------------------------------------------------------------




--------------------------------------- Iteration      1(   2)  ---------------------------------------


     EDDAV:  cpu time      4.6422: real time      4.6467
 BZINTS: Fermi energy:   11.161080;  199.000000 electrons
         Band energy:-0.984081E+03;  BLOECHL correction:   -0.255075
       DOS:  cpu time      0.0350: real time      0.0350
    --------------------------------------------
      LOOP:  cpu time      4.6772: real time      4.6818

 eigenvalue-minimisations  :  9856
 total energy-change (2. order) :-0.2372287E+04  (-0.2128483E+04)
 number of electron     199.0000000 magnetization      32.4000000
 augmentation part      199.0000000 magnetization      32.4000000

 Free energy of the ion-electron system (eV)
  ---------------------------------------------------
  alpha Z        PSCENC =      1286.67603841
  Ewald energy   TEWEN  =    -17262.38945859
  -Hartree energ DENC   =     -5729.03316209
  -exchange      EXHF   =         0.00000000
  -V(xc)+E(xc)   XCENC  =       790.62915747
  PAW double counting   =     18869.64844474   -19329.03991292
  entropy T*S    EENTRO =         0.00000000
  eigenvalues    EBANDS =      -984.08107529
  atomic energy  EATOM  =     22840.50007300
  Solvation  Ediel_sol  =         0.00000000
  ---------------------------------------------------
  free energy    TOTEN  =       482.91010473 eV

  energy without entropy =      482.91010473  energy(sigma->0) =      482.91010473


--------------------------------------------------------------------------------------------------------




--------------------------------------- Iteration      1(   3)  ---------------------------------------


     EDDAV:  cpu time      4.2207: real time      4.2236
 BZINTS: Fermi energy:    6.062261;  199.000000 electrons
         Band energy:-0.159558E+04;  BLOECHL correction:   -0.047973
       DOS:  cpu time      0.0312: real time      0.0312
    --------------------------------------------
      LOOP:  cpu time      4.2519: real time      4.2548

 eigenvalue-minimisations  :  8776
 total energy-change (2. order) :-0.6115001E+03  (-0.5231027E+03)
 number of electron     199.0000000 magnetization      32.4000000
 augmentation part      199.0000000 magnetization      32.4000000

 Free energy of the ion-electron system (eV)
  ---------------------------------------------------
  alpha Z        PSCENC =      1286.67603841
  Ewald energy   TEWEN  =    -17262.38945859
  -Hartree energ DENC   =     -5729.03316209
  -exchange      EXHF   =         0.00000000
  -V(xc)+E(xc)   XCENC  =       790.62915747
  PAW double counting   =     18869.64844474   -19329.03991292
  entropy T*S    EENTRO =         0.00000000
  eigenvalues    EBANDS =     -1595.58113112
  atomic energy  EATOM  =     22840.50007300
  Solvation  Ediel_sol  =         0.00000000
  ---------------------------------------------------
  free energy    TOTEN  =      -128.58995110 eV

  energy without entropy =     -128.58995110  energy(sigma->0) =     -128.58995110


--------------------------------------------------------------------------------------------------------




--------------------------------------- Iteration      1(   4)  ---------------------------------------


     EDDAV:  cpu time      3.9964: real time      3.9986
 BZINTS: Fermi energy:    5.253598;  199.000000 electrons
         Band energy:-0.169822E+04;  BLOECHL correction:   -0.000336
       DOS:  cpu time      0.0299: real time      0.0299
    --------------------------------------------
      LOOP:  cpu time      4.0263: real time      4.0285

 eigenvalue-minimisations  :  8096
 total energy-change (2. order) :-0.1026425E+03  (-0.9847432E+02)
 number of electron     199.0000000 magnetization      32.4000000
 augmentation part      199.0000000 magnetization      32.4000000

 Free energy of the ion-electron system (eV)
  ---------------------------------------------------
  alpha Z        PSCENC =      1286.67603841
  Ewald energy   TEWEN  =    -17262.38945859
  -Hartree energ DENC   =     -5729.03316209
  -exchange      EXHF   =         0.00000000
  -V(xc)+E(xc)   XCENC  =       790.62915747
  PAW double counting   =     18869.64844474   -19329.03991292
  entropy T*S    EENTRO =         0.00000000
  eigenvalues    EBANDS =     -1698.22366368
  atomic energy  EATOM  =     22840.50007300
  Solvation  Ediel_sol  =         0.00000000
  ---------------------------------------------------
  free energy    TOTEN  =      -231.23248365 eV

  energy without entropy =     -231.23248365  energy(sigma->0) =     -231.23248365


--------------------------------------------------------------------------------------------------------




--------------------------------------- Iteration      1(   5)  ---------------------------------------


     EDDAV:  cpu time      5.2659: real time      5.2700
 BZINTS: Fermi energy:    5.213487;  199.000000 electrons
         Band energy:-0.170559E+04;  BLOECHL correction:   -0.000933
       DOS:  cpu time      0.0310: real time      0.0310
    CHARGE:  cpu time      0.2906: real time      0.2908
    MIXING:  cpu time      0.0029: real time      0.0029
    --------------------------------------------
      LOOP:  cpu time      5.5903: real time      5.5947

 eigenvalue-minimisations  : 11416
 total energy-change (2. order) :-0.7368090E+01  (-0.7257546E+01)
 number of electron     199.0000002 magnetization       9.3992085
 augmentation part       55.2153326 magnetization       9.2465045

 Broyden mixing:
  rms(total) = 0.10357E+02    rms(broyden)= 0.10357E+02
  rms(prec ) = 0.20285E+02
  weight for this iteration     100.00

 Free energy of the ion-electron system (eV)
  ---------------------------------------------------
  alpha Z        PSCENC =      1286.67603841
  Ewald energy   TEWEN  =    -17262.38945859
  -Hartree energ DENC   =     -5729.03316209
  -exchange      EXHF   =         0.00000000
  -V(xc)+E(xc)   XCENC  =       790.62915747
  PAW double counting   =     18869.64844474   -19329.03991292
  entropy T*S    EENTRO =         0.00000000
  eigenvalues    EBANDS =     -1705.59175387
  atomic energy  EATOM  =     22840.50007300
  Solvation  Ediel_sol  =         0.00000000
  ---------------------------------------------------
  free energy    TOTEN  =      -238.60057385 eV

  energy without entropy =     -238.60057385  energy(sigma->0) =     -238.60057385


--------------------------------------------------------------------------------------------------------




--------------------------------------- Iteration      1(   6)  ---------------------------------------


    POTLOK:  cpu time      0.0096: real time      0.0102
    SETDIJ:  cpu time      2.4508: real time      2.4520
     EDDAV:  cpu time      5.4338: real time      5.4362
 BZINTS: Fermi energy:    8.745588;  199.000000 electrons
         Band energy:-0.186033E+04;  BLOECHL correction:   -0.088415
       DOS:  cpu time      0.0299: real time      0.0300
    CHARGE:  cpu time      0.2840: real time      0.2843
    MIXING:  cpu time      0.0035: real time      0.0059
    --------------------------------------------
      LOOP:  cpu time      8.2116: real time      8.2185

 eigenvalue-minimisations  : 11824
 total energy-change (2. order) :-0.1048340E+04  (-0.1058349E+04)
 number of electron     199.0000001 magnetization       7.4560783
 augmentation part       40.9105602 magnetization       7.3955490

 Broyden mixing:
  rms(total) = 0.36966E+02    rms(broyden)= 0.36966E+02
  rms(prec ) = 0.47672E+02
  weight for this iteration     100.00

 eigenvalues of (default mixing * dielectric matrix)
  average eigenvalue GAMMA=   0.0344
  0.0344

 Free energy of the ion-electron system (eV)
  ---------------------------------------------------
  alpha Z        PSCENC =      1286.67603841
  Ewald energy   TEWEN  =    -17262.38945859
  -Hartree energ DENC   =     -6159.19055618
  -exchange      EXHF   =         0.00000000
  -V(xc)+E(xc)   XCENC  =       806.66242742
  PAW double counting   =     20810.05356392   -21748.92791605
  entropy T*S    EENTRO =         0.00000000
  eigenvalues    EBANDS =     -1860.32512947
  atomic energy  EATOM  =     22840.50007300
  Solvation  Ediel_sol  =         0.00000000
  ---------------------------------------------------
  free energy    TOTEN  =     -1286.94095754 eV

  energy without entropy =    -1286.94095754  energy(sigma->0) =    -1286.94095754


--------------------------------------------------------------------------------------------------------




--------------------------------------- Iteration      1(   7)  ---------------------------------------


    POTLOK:  cpu time      0.0093: real time      0.0101
    SETDIJ:  cpu time      2.4362: real time      2.4373
     EDDAV:  cpu time      5.3845: real time      5.3873
 BZINTS: Fermi energy:    6.321782;  199.000000 electrons
         Band energy:-0.163669E+04;  BLOECHL correction:   -0.109966
       DOS:  cpu time      0.0293: real time      0.0293
    CHARGE:  cpu time      0.2836: real time      0.2839
    MIXING:  cpu time      0.0030: real time      0.0030
    --------------------------------------------
      LOOP:  cpu time      8.1460: real time      8.1508

 eigenvalue-minimisations  : 11824
 total energy-change (2. order) : 0.5798139E+03  (-0.3011236E+02)
 number of electron     199.0000001 magnetization       5.7266839
 augmentation part       38.8118017 magnetization       5.3559054

 Broyden mixing:
  rms(total) = 0.20051E+02    rms(broyden)= 0.20051E+02
  rms(prec ) = 0.32338E+02
  weight for this iteration     100.00

 eigenvalues of (default mixing * dielectric matrix)
  average eigenvalue GAMMA=   0.3980
  0.3980  0.3980

 Free energy of the ion-electron system (eV)
  ---------------------------------------------------
  alpha Z        PSCENC =      1286.67603841
  Ewald energy   TEWEN  =    -17262.38945859
  -Hartree energ DENC   =     -5974.27057025
  -exchange      EXHF   =         0.00000000
  -V(xc)+E(xc)   XCENC  =       799.85811934
  PAW double counting   =     22090.15061268   -22850.96047376
  entropy T*S    EENTRO =         0.00000000
  eigenvalues    EBANDS =     -1636.69135804
  atomic energy  EATOM  =     22840.50007300
  Solvation  Ediel_sol  =         0.00000000
  ---------------------------------------------------
  free energy    TOTEN  =      -707.12701720 eV

  energy without entropy =     -707.12701720  energy(sigma->0) =     -707.12701720


--------------------------------------------------------------------------------------------------------




--------------------------------------- Iteration      1(   8)  ---------------------------------------


    POTLOK:  cpu time      0.0099: real time      0.0104
    SETDIJ:  cpu time      2.4478: real time      2.4487
     EDDAV:  cpu time      5.2506: real time      5.2548
 BZINTS: Fermi energy:    5.009551;  199.000000 electrons
         Band energy:-0.152792E+04;  BLOECHL correction:   -0.032049
       DOS:  cpu time      0.0327: real time      0.0328
    CHARGE:  cpu time      0.2883: real time      0.2886
    MIXING:  cpu time      0.0035: real time      0.0035
    --------------------------------------------
      LOOP:  cpu time      8.0328: real time      8.0388

 eigenvalue-minimisations  : 11344
 total energy-change (2. order) : 0.5484658E+03  (-0.7189364E+02)
 number of electron     199.0000003 magnetization       4.9821446
 augmentation part       55.0127281 magnetization       5.0254879

 Broyden mixing:
  rms(total) = 0.67572E+01    rms(broyden)= 0.67566E+01
  rms(prec ) = 0.99789E+01
  weight for this iteration     100.00

 eigenvalues of (default mixing * dielectric matrix)
  average eigenvalue GAMMA=   0.4515
  0.4630  0.4457  0.4457

 Free energy of the ion-electron system (eV)
  ---------------------------------------------------
  alpha Z        PSCENC =      1286.67603841
  Ewald energy   TEWEN  =    -17262.38945859
  -Hartree energ DENC   =     -5747.48121247
  -exchange      EXHF   =         0.00000000
  -V(xc)+E(xc)   XCENC  =       791.58672762
  PAW double counting   =     24765.33360676   -25304.96582349
  entropy T*S    EENTRO =         0.00000000
  eigenvalues    EBANDS =     -1527.92116041
  atomic energy  EATOM  =     22840.50007300
  Solvation  Ediel_sol  =         0.00000000
  ---------------------------------------------------
  free energy    TOTEN  =      -158.66120917 eV

  energy without entropy =     -158.66120917  energy(sigma->0) =     -158.66120917


--------------------------------------------------------------------------------------------------------




--------------------------------------- Iteration      1(   9)  ---------------------------------------


    POTLOK:  cpu time      0.0094: real time      0.0102
    SETDIJ:  cpu time      2.4645: real time      2.4664
     EDDAV:  cpu time      5.1911: real time      5.1955
 BZINTS: Fermi energy:    7.691181;  199.000000 electrons
         Band energy:-0.141519E+04;  BLOECHL correction:   -0.005220
       DOS:  cpu time      0.0313: real time      0.0313
    CHARGE:  cpu time      0.2809: real time      0.2811
    MIXING:  cpu time      0.0042: real time      0.0042
    --------------------------------------------
      LOOP:  cpu time      7.9814: real time      7.9887

 eigenvalue-minimisations  : 11248
 total energy-change (2. order) :-0.2372182E+02  (-0.3578785E+02)
 number of electron     199.0000002 magnetization       7.4671361
 augmentation part       41.5297143 magnetization       6.1218893

 Broyden mixing:
  rms(total) = 0.61698E+01    rms(broyden)= 0.61695E+01
  rms(prec ) = 0.10244E+02
  weight for this iteration     100.00

 eigenvalues of (default mixing * dielectric matrix)
  average eigenvalue GAMMA=   0.4064
  0.5219  0.5219  0.2909  0.2909

 Free energy of the ion-electron system (eV)
  ---------------------------------------------------
  alpha Z        PSCENC =      1286.67603841
  Ewald energy   TEWEN  =    -17262.38945859
  -Hartree energ DENC   =     -5829.17183186
  -exchange      EXHF   =         0.00000000
  -V(xc)+E(xc)   XCENC  =       791.01231716
  PAW double counting   =     26010.52641458   -26604.34811608
  entropy T*S    EENTRO =         0.00000000
  eigenvalues    EBANDS =     -1415.18846769
  atomic energy  EATOM  =     22840.50007300
  Solvation  Ediel_sol  =         0.00000000
  ---------------------------------------------------
  free energy    TOTEN  =      -182.38303107 eV

  energy without entropy =     -182.38303107  energy(sigma->0) =     -182.38303107


--------------------------------------------------------------------------------------------------------




--------------------------------------- Iteration      1(  10)  ---------------------------------------


    POTLOK:  cpu time      0.0098: real time      0.0106
    SETDIJ:  cpu time      2.4345: real time      2.4355
     EDDAV:  cpu time      4.9231: real time      4.9253
 BZINTS: Fermi energy:    5.760918;  199.000000 electrons
         Band energy:-0.149517E+04;  BLOECHL correction:   -0.029925
       DOS:  cpu time      0.0308: real time      0.0308
    CHARGE:  cpu time      0.2831: real time      0.2834
    MIXING:  cpu time      0.0033: real time      0.0033
    --------------------------------------------
      LOOP:  cpu time      7.6846: real time      7.6889

 eigenvalue-minimisations  : 10624
 total energy-change (2. order) : 0.9041886E+00  (-0.8515719E+01)
 number of electron     199.0000002 magnetization       7.9324175
 augmentation part       46.9445223 magnetization       6.7425617

 Broyden mixing:
  rms(total) = 0.53245E+01    rms(broyden)= 0.53244E+01
  rms(prec ) = 0.54458E+01
  weight for this iteration     100.00

 eigenvalues of (default mixing * dielectric matrix)
  average eigenvalue GAMMA=   0.3250
  0.5141  0.5141  0.2789  0.2789  0.0389

 Free energy of the ion-electron system (eV)
  ---------------------------------------------------
  alpha Z        PSCENC =      1286.67603841
  Ewald energy   TEWEN  =    -17262.38945859
  -Hartree energ DENC   =     -5778.45047059
  -exchange      EXHF   =         0.00000000
  -V(xc)+E(xc)   XCENC  =       790.35220205
  PAW double counting   =     25252.68379372   -25815.68410069
  entropy T*S    EENTRO =         0.00000000
  eigenvalues    EBANDS =     -1495.16691981
  atomic energy  EATOM  =     22840.50007300
  Solvation  Ediel_sol  =         0.00000000
  ---------------------------------------------------
  free energy    TOTEN  =      -181.47884250 eV

  energy without entropy =     -181.47884250  energy(sigma->0) =     -181.47884250


--------------------------------------------------------------------------------------------------------




--------------------------------------- Iteration      1(  11)  ---------------------------------------


    POTLOK:  cpu time      0.0093: real time      0.0106
    SETDIJ:  cpu time      2.4340: real time      2.4348
     EDDAV:  cpu time      5.5498: real time      5.5532
 BZINTS: Fermi energy:    5.701423;  199.000000 electrons
         Band energy:-0.149048E+04;  BLOECHL correction:   -0.036716
       DOS:  cpu time      0.0311: real time      0.0311
    CHARGE:  cpu time      0.2829: real time      0.2831
    MIXING:  cpu time      0.0036: real time      0.0036
    --------------------------------------------
      LOOP:  cpu time      8.3107: real time      8.3163

 eigenvalue-minimisations  : 12176
 total energy-change (2. order) :-0.2277557E+01  (-0.1009915E+01)
 number of electron     199.0000002 magnetization      10.8306415
 augmentation part       46.2381911 magnetization       9.4389216

 Broyden mixing:
  rms(total) = 0.52754E+01    rms(broyden)= 0.52754E+01
  rms(prec ) = 0.53579E+01
  weight for this iteration     100.00

 eigenvalues of (default mixing * dielectric matrix)
  average eigenvalue GAMMA=   0.4232
  0.4488  0.4488  0.5192  0.5192  0.3016  0.3016

 Free energy of the ion-electron system (eV)
  ---------------------------------------------------
  alpha Z        PSCENC =      1286.67603841
  Ewald energy   TEWEN  =    -17262.38945859
  -Hartree energ DENC   =     -5782.71818816
  -exchange      EXHF   =         0.00000000
  -V(xc)+E(xc)   XCENC  =       790.98657916
  PAW double counting   =     25279.26482306   -25845.60022374
  entropy T*S    EENTRO =         0.00000000
  eigenvalues    EBANDS =     -1490.47604297
  atomic energy  EATOM  =     22840.50007300
  Solvation  Ediel_sol  =         0.00000000
  ---------------------------------------------------
  free energy    TOTEN  =      -183.75639983 eV

  energy without entropy =     -183.75639983  energy(sigma->0) =     -183.75639983


--------------------------------------------------------------------------------------------------------




--------------------------------------- Iteration      1(  12)  ---------------------------------------


    POTLOK:  cpu time      0.0093: real time      0.0106
    SETDIJ:  cpu time      2.4378: real time      2.4387
     EDDAV:  cpu time      5.4774: real time      5.4814
 BZINTS: Fermi energy:    5.533791;  199.000000 electrons
         Band energy:-0.150761E+04;  BLOECHL correction:   -0.037290
       DOS:  cpu time      0.0294: real time      0.0294
    CHARGE:  cpu time      0.2831: real time      0.2833
    MIXING:  cpu time      0.0034: real time      0.0034
    --------------------------------------------
      LOOP:  cpu time      8.2404: real time      8.2467

 eigenvalue-minimisations  : 11928
 total energy-change (2. order) :-0.3696634E+01  (-0.1048913E+00)
 number of electron     199.0000002 magnetization      20.8687423
 augmentation part       46.3343072 magnetization      19.2225985

 Broyden mixing:
  rms(total) = 0.42528E+01    rms(broyden)= 0.42528E+01
  rms(prec ) = 0.43280E+01
  weight for this iteration     100.00

 eigenvalues of (default mixing * dielectric matrix)
  average eigenvalue GAMMA=   0.5638
  0.8909  0.8909  0.5548  0.5548  0.3251  0.3251  0.4051

 Free energy of the ion-electron system (eV)
  ---------------------------------------------------
  alpha Z        PSCENC =      1286.67603841
  Ewald energy   TEWEN  =    -17262.38945859
  -Hartree energ DENC   =     -5787.31732602
  -exchange      EXHF   =         0.00000000
  -V(xc)+E(xc)   XCENC  =       792.90906902
  PAW double counting   =     24523.21922395   -25073.44208031
  entropy T*S    EENTRO =         0.00000000
  eigenvalues    EBANDS =     -1507.60857300
  atomic energy  EATOM  =     22840.50007300
  Solvation  Ediel_sol  =         0.00000000
  ---------------------------------------------------
  free energy    TOTEN  =      -187.45303355 eV

  energy without entropy =     -187.45303355  energy(sigma->0) =     -187.45303355


--------------------------------------------------------------------------------------------------------




--------------------------------------- Iteration      1(  13)  ---------------------------------------


    POTLOK:  cpu time      0.0094: real time      0.0104
    SETDIJ:  cpu time      2.4491: real time      2.4512
     EDDAV:  cpu time      4.9473: real time      4.9515
 BZINTS: Fermi energy:    5.069581;  199.000000 electrons
         Band energy:-0.153900E+04;  BLOECHL correction:   -0.025932
       DOS:  cpu time      0.0312: real time      0.0312
    CHARGE:  cpu time      0.2819: real time      0.2821
    MIXING:  cpu time      0.0038: real time      0.0038
    --------------------------------------------
      LOOP:  cpu time      7.7227: real time      7.7302

 eigenvalue-minimisations  : 10592
 total energy-change (2. order) :-0.8016563E+01  (-0.6053054E+00)
 number of electron     199.0000002 magnetization      23.8818946
 augmentation part       46.8680264 magnetization      21.3924615

 Broyden mixing:
  rms(total) = 0.16575E+01    rms(broyden)= 0.16575E+01
  rms(prec ) = 0.25865E+01
  weight for this iteration     100.00

 eigenvalues of (default mixing * dielectric matrix)
  average eigenvalue GAMMA=   0.5842
  0.9435  0.9435  0.5528  0.5528  0.5227  0.5227  0.3178  0.3178

 Free energy of the ion-electron system (eV)
  ---------------------------------------------------
  alpha Z        PSCENC =      1286.67603841
  Ewald energy   TEWEN  =    -17262.38945859
  -Hartree energ DENC   =     -5806.88679030
  -exchange      EXHF   =         0.00000000
  -V(xc)+E(xc)   XCENC  =       803.79672378
  PAW double counting   =     22441.55720222   -22959.72590692
  entropy T*S    EENTRO =         0.00000000
  eigenvalues    EBANDS =     -1538.99747825
  atomic energy  EATOM  =     22840.50007300
  Solvation  Ediel_sol  =         0.00000000
  ---------------------------------------------------
  free energy    TOTEN  =      -195.46959665 eV

  energy without entropy =     -195.46959665  energy(sigma->0) =     -195.46959665


--------------------------------------------------------------------------------------------------------




--------------------------------------- Iteration      1(  14)  ---------------------------------------


    POTLOK:  cpu time      0.0094: real time      0.0101
    SETDIJ:  cpu time      2.4556: real time      2.4575
     EDDAV:  cpu time      4.7890: real time      4.7925
 BZINTS: Fermi energy:    4.981666;  199.000000 electrons
         Band energy:-0.153877E+04;  BLOECHL correction:   -0.024141
       DOS:  cpu time      0.0309: real time      0.0309
    CHARGE:  cpu time      0.2848: real time      0.2850
    MIXING:  cpu time      0.0038: real time      0.0038
    --------------------------------------------
      LOOP:  cpu time      7.5736: real time      7.5799

 eigenvalue-minimisations  : 10192
 total energy-change (2. order) :-0.7440537E+00  (-0.2938997E+00)
 number of electron     199.0000002 magnetization      25.7883099
 augmentation part       46.9847611 magnetization      23.4893107

 Broyden mixing:
  rms(total) = 0.17505E+01    rms(broyden)= 0.17504E+01
  rms(prec ) = 0.30761E+01
  weight for this iteration     100.00

 eigenvalues of (default mixing * dielectric matrix)
  average eigenvalue GAMMA=   0.5608
  0.9203  0.9203  0.5731  0.5731  0.6325  0.6325  0.3183  0.3183  0.1588

 Free energy of the ion-electron system (eV)
  ---------------------------------------------------
  alpha Z        PSCENC =      1286.67603841
  Ewald energy   TEWEN  =    -17262.38945859
  -Hartree energ DENC   =     -5813.24017170
  -exchange      EXHF   =         0.00000000
  -V(xc)+E(xc)   XCENC  =       808.16149451
  PAW double counting   =     21974.86088492   -22492.01620314
  entropy T*S    EENTRO =         0.00000000
  eigenvalues    EBANDS =     -1538.76630776
  atomic energy  EATOM  =     22840.50007300
  Solvation  Ediel_sol  =         0.00000000
  ---------------------------------------------------
  free energy    TOTEN  =      -196.21365037 eV

  energy without entropy =     -196.21365037  energy(sigma->0) =     -196.21365037


--------------------------------------------------------------------------------------------------------




--------------------------------------- Iteration      1(  15)  ---------------------------------------


    POTLOK:  cpu time      0.0094: real time      0.0104
    SETDIJ:  cpu time      2.4461: real time      2.4473
     EDDAV:  cpu time      4.9431: real time      4.9460
 BZINTS: Fermi energy:    4.942595;  199.000000 electrons
         Band energy:-0.152503E+04;  BLOECHL correction:   -0.030839
       DOS:  cpu time      0.0307: real time      0.0307
    CHARGE:  cpu time      0.2808: real time      0.2808
    MIXING:  cpu time      0.0048: real time      0.0048
    --------------------------------------------
      LOOP:  cpu time      7.7149: real time      7.7200

 eigenvalue-minimisations  : 10600
 total energy-change (2. order) : 0.2583995E+00  (-0.2648507E+00)
 number of electron     199.0000002 magnetization      24.2292236
 augmentation part       46.8283512 magnetization      21.8482154

 Broyden mixing:
  rms(total) = 0.19921E+01    rms(broyden)= 0.19921E+01
  rms(prec ) = 0.29733E+01
  weight for this iteration     100.00

 eigenvalues of (default mixing * dielectric matrix)
  average eigenvalue GAMMA=   0.5669
  0.8772  0.8772  0.7195  0.7195  0.6005  0.6005  0.4999  0.3165  0.3165  0.1417

 Free energy of the ion-electron system (eV)
  ---------------------------------------------------
  alpha Z        PSCENC =      1286.67603841
  Ewald energy   TEWEN  =    -17262.38945859
  -Hartree energ DENC   =     -5816.72708128
  -exchange      EXHF   =         0.00000000
  -V(xc)+E(xc)   XCENC  =       811.29144202
  PAW double counting   =     21708.18232757   -22238.46196306
  entropy T*S    EENTRO =         0.00000000
  eigenvalues    EBANDS =     -1525.02662892
  atomic energy  EATOM  =     22840.50007300
  Solvation  Ediel_sol  =         0.00000000
  ---------------------------------------------------
  free energy    TOTEN  =      -195.95525085 eV

  energy without entropy =     -195.95525085  energy(sigma->0) =     -195.95525085


--------------------------------------------------------------------------------------------------------




[...]
  260          m_sumb_d                              0.000153                          2   4
  261        strnlr                                1.903488                            1   3
  262          rspher_all                            0.179120                          9   4
  263          phaser                                0.518260                        117   4
  264          rpro_isp                              1.201322                        117   4
  265            fftwav_mpi                            0.250056                     7956   5
  266              fftwav                                0.240349                   7956   6
  267                fft3d                                 0.052882                 7956   7
  268            rpromu_acc                            0.525004                     2106   5
  269          m_sumb_d                              0.000013                          1   4
  270        fft3d_mpi                             0.004647                           22   3
  271          fftbrc_mpi                            0.003913                         22   4
  272            fftbas_plan_mpi                       0.003901                       22   5
  273              map_forward                           0.001081                     20   6
  274                map_gather                            0.000220                   10   7
  275                m_alltoallv_z                         0.000126                   10   7
  276                map_scatter                           0.000571                   10   7
  277              map_backward                          0.002186                     24   6
  278                map_gather                            0.000287                   12   7
  279                m_alltoallv_z                         0.000123                   12   7
  280                map_scatter                           0.001593                   12   7
  281        m_sumb_d                              0.000029                            5   3
  282        forhar                                0.002516                            2   3
  283          m_sumb_d                              0.000090                          2   4
  284        strehar                               0.001714                            1   3
  285          m_sumb_d                              0.000058                          1   4
  286        chggra                                0.000889                            1   3
  287          fft3d_mpi                             0.000521                          3   4
  288            fftbrc_mpi                            0.000414                        3   5
  289              fftbas_plan_mpi                       0.000413                      3   6
  290                map_forward                           0.000224                    4   7
  291                  map_gather                            0.000047                  2   8
  292                  m_alltoallv_z                         0.000046                  2   8
  293                  map_scatter                           0.000095                  2   8
  294                map_backward                          0.000096                    2   7
  295                  map_gather                            0.000024                  1   8
  296                  m_alltoallv_z                         0.000011                  1   8
  297                  map_scatter                           0.000044                  1   8
  298          m_sumb_d                              0.000012                          2   4
  299          pothar                                0.000085                          1   4
  300            m_sumb_d                              0.000008                        1   5
  301        brmix                                 0.010437                            1   3
  302          m_sumb_d                              0.000057                          6   4
  303          brpre                                 0.000033                          2   4
  304          setg0                                 0.001114                          1   4
  305          broyd                                 0.007955                          1   4
  306            brget                                 0.002089                      326   5
  307            brsav                                 0.000953                      163   5
  308            m_sumb_d                              0.000421                       47   5
  309        m_bcast_d                             0.000025                            2   3
  310      potlok                                0.041163                              2   2
  311        fft3d_mpi                             0.025955                           36   3
  312          fftbrc_mpi                            0.022592                         36   4
  313            fftbas_plan_mpi                       0.022571                       36   5
  314              map_forward                           0.006375                     40   6
  315                map_gather                            0.001869                   24   7
  316                m_alltoallv_z                         0.002530                   24   7
  317                map_scatter                           0.001773                   24   7
  318              map_backward                          0.005599                     32   6
  319                map_gather                            0.001689                   16   7
  320                m_alltoallv_z                         0.002173                   16   7
  321                map_scatter                           0.001542                   16   7
  322              dfftw_execute                         0.009059                     30   6
  323        m_sumb_d                              0.000028                            5   3
  324        pothar                                0.001582                            2   3
  325          m_sumb_d                              0.000124                          2   4
  326        m_bcast_d                             0.002606                            4   3
  327      potlok_metagga                        0.000000                              1   2
  328      set_dd_magatom                        0.000004                              1   2
  329      set_dd_paw                            2.276872                              1   2
  330        m_sumb_d                              0.663816                            7   3
  331      augmentation_charge                   0.173950                              1   2
  332        fft3d_mpi                             0.058500                            2   3
  333          fftbrc_mpi                            0.053117                          2   4
  334            fftbas_plan_mpi                       0.053115                        2   5
  335              dfftw_execute                         0.035935                      6   6
  336              map_backward                          0.016895                      4   6
  337                map_gather                            0.004709                    2   7
  338                m_alltoallv_z                         0.006312                    2   7
  339                map_scatter                           0.005865                    2   7
  340      fftwav_mpi                            2.885396                           2652   2
  341        fftwav                                2.882037                         2652   3
  342          fft3d                                 2.670921                       2652   4
  343      densta                                1.106159                              1   2
 
 Flat profile
 ============
 
             routine name                   CPU           calls
 ---------------------------------------------------------------
 set_dd_paw                             77.434638          48
 m_sumb_d                               64.518852      249493
 eddav                                  42.919283          50
 raccmu_                                42.806948       81292
 lapack                                 37.918217       81292
 redis_pw                               18.084749      446204
 total_time                             13.070276           1
 init_acc                               11.125415           1
 m_alltoall_d                            8.475250     1186708
 setdij_                                 7.833419          74
 phaser                                  6.337482        1469
 fft3d                                   6.238426      488184
 augmentation_charge                     5.330865          47
 dfftw_execute                           5.112099        1584
 eccp                                    4.455500       44200
 redis_proj                              3.846182      564614
 fftwav                                  3.400226      325600
 densta                                  2.654104          51
 orth1                                   2.616280      244006
 rpromu_acc                              2.456132       62234
 acc_init_cublas                         2.433263           1
 racc0mu_acc                             2.416701       81292
 w1_copy                                 2.374668      487752
 overl                                   2.374242      280994
 hamiltmu                                2.242748       81292
 m_bcast_z                               2.001701       84828
 soft_charge                             1.751807          46
 setup_precond                           1.611553       44200
 ggemm                                   1.599317      103392
 m_bcast_d                               1.348986      162685
 overl_mu                                1.281267       81292
 m_alltoallv_z                           1.190599        1983
 pw_charge                               0.950003       30488
 map_scatter                             0.843174        1983
 acc_init_cusolver                       0.789497           1
 vhamil                                  0.759891      162584
 fft3d_mpi                               0.753162      164359
 kinhamil                                0.736194      162584
 fftext_mpi                              0.698080      162584
 newband                                 0.681824       82592
 depsum                                  0.670232          46
 apply_precond                           0.660764      118384
 rpro_isp                                0.592389         169
 map_gather                              0.571644        1983
 set_charge                              0.464696          46
 fftwav_mpi                              0.436199      325600
 rspher_all                              0.266135          14
 potlok                                  0.224990          48
 sphpro_fast                             0.158800           2
 acc_cufft_makeplan                      0.121480          19
 elmin                                   0.118189           1
 fftbas_plan_mpi                         0.106011        1775
 broyd                                   0.101982          46
 brmix                                   0.084253          46
 proall                                  0.062925           1
 w1_projall                              0.062162       59192
 setg0                                   0.052212          48
 lincom                                  0.047435        1326
 brget                                   0.037682        5675
 orthch                                  0.021390           1
 truncate_high_frequency_w1              0.016885      206784
 force_and_stress                        0.016684           1
 choleski                                0.012205          26
 stufak                                  0.011916           1
 map_forward                             0.010343        1696
 map_backward                            0.010045        1854
 brsav                                   0.009101        1386
 pothar                                  0.005186          49
 strnlr                                  0.004773           1
 inisym                                  0.004488           1
 fft_gq                                  0.004254          46
 forhar                                  0.002426           2
 strelo                                  0.002147           1
 brpre                                   0.001680          92
 strehar                                 0.001656           1
 fornlr                                  0.001647           1
 forloc                                  0.001276           1
 fftbrc_mpi                              0.001102        1775
 strkin                                  0.000904           1
 rsp                                     0.000728           1
 fewald                                  0.000354           1
 chggra                                  0.000271           1
 set_dd_magatom                          0.000216          48
 brgrid                                  0.000215           1
 vectorpot                               0.000198          47
 fordep                                  0.000098           1
 posmap                                  0.000058           2
 rcp                                     0.000041           1
 crpa_reader                             0.000027           1
 acc_cufft_makeplans                     0.000014           3
 potlok_metagga                          0.000003          47
 rotate_active_occupied_orbital          0.000001           1
 redis_pw_over_bands                     0.000000           1
 ---------------------------------------------------------------
  summed up times     400.4555361270905     
 
 Accumulative profile
 ====================
 
             routine name                   CPU           calls
 ---------------------------------------------------------------
 total_time                            400.455536           1
 elmin                                 354.966956           1
 eddav                                 226.944930          50
 set_dd_paw                            109.239699          48
 m_sumb_d                               64.518852      249493
 hamiltmu                               52.138070       81292
 raccmu_                                46.504917       81292
 lapack                                 37.918217       81292
 redis_pw                               22.191410      446204
 set_charge                             13.044279          46
 setdij_                                12.884370          74
 init_acc                               11.125415           1
 newband                                10.164923       82592
 fft3d_mpi                               9.746170      164359
 force_and_stress                        9.662028           1
 fftwav_mpi                              8.926861      325600
 fftwav                                  8.490662      325600
 m_alltoall_d                            8.475250     1186708
 redis_proj                              8.214771      564614
 augmentation_charge                     8.101336          47
 fftbrc_mpi                              7.845017        1775
 fftbas_plan_mpi                         7.843915        1775
 phaser                                  6.337482        1469
 fft3d                                   6.238426      488184
 dfftw_execute                           5.112099        1584
 eccp                                    4.455500       44200
 soft_charge                             3.891659          46
 densta                                  2.654104          51
 kinhamil                                2.630515      162584
 orth1                                   2.616280      244006
 rpromu_acc                              2.456132       62234
 acc_init_cublas                         2.433263           1
 racc0mu_acc                             2.416701       81292
 w1_copy                                 2.374668      487752
 overl                                   2.374242      280994
 m_bcast_z                               2.001701       84828
 strnlr                                  1.903488           1
 fftext_mpi                              1.894321      162584
 w1_projall                              1.810392       59192
 rpro_isp                                1.648089         169
 setup_precond                           1.611553       44200
 ggemm                                   1.599317      103392
 map_forward                             1.405501        1696
 m_bcast_d                               1.348986      162685
 overl_mu                                1.281267       81292
 map_backward                            1.220303        1854
 m_alltoallv_z                           1.190599        1983
 fordep                                  1.056394           1
 pw_charge                               0.950003       30488
 map_scatter                             0.843174        1983
 acc_init_cusolver                       0.789497           1
 vhamil                                  0.759891      162584
 depsum                                  0.681460          46
 apply_precond                           0.660764      118384
 potlok                                  0.644399          48
 fornlr                                  0.636332           1
 map_gather                              0.571644        1983
 orthch                                  0.343922           1
 brmix                                   0.301563          46
 rspher_all                              0.266135          14
 sphpro_fast                             0.165219           2
 proall                                  0.165093           1
 broyd                                   0.159981          46
 acc_cufft_makeplans                     0.121493           3
 acc_cufft_makeplan                      0.121480          19
 fft_gq                                  0.112910          46
 setg0                                   0.052212          48
 lincom                                  0.047435        1326
 brget                                   0.037682        5675
 truncate_high_frequency_w1              0.016885      206784
 choleski                                0.012205          26
 stufak                                  0.011916           1
 brsav                                   0.009101        1386
 pothar                                  0.005783          49
 inisym                                  0.004546           1
 forhar                                  0.002516           2
 strelo                                  0.002300           1
 strehar                                 0.001714           1
 brpre                                   0.001680          92
 forloc                                  0.001641           1
 fewald                                  0.001619           1
 strkin                                  0.000909           1
 chggra                                  0.000889           1
 rsp                                     0.000728           1
 set_dd_magatom                          0.000216          48
 brgrid                                  0.000215           1
 vectorpot                               0.000198          47
 posmap                                  0.000058           2
 rcp                                     0.000041           1
 crpa_reader                             0.000027           1
 potlok_metagga                          0.000003          47
 rotate_active_occupied_orbital          0.000001           1
 redis_pw_over_bands                     0.000000           1
 ---------------------------------------------------------------
 
Profiling took   1.005672  0.498304  0.003248  0.003135 seconds
Profiling took   0.639498 seconds
