 vasp.6.3.2 27Jun22 (build Jul  3 2023 11:46:21) complex                         
 executed on    LinuxNV_CrayMPICH date 2024.04.21  00:10:12
 running on    4 total cores
 distrk:  each k-point on    4 cores,    1 groups
 distr:  one band on NCORE=   1 cores,    4 groups


--------------------------------------------------------------------------------------------------------


 INCAR:
   ALGO = Normal
   EDIFF = 1e-05
   ENCUT = 520.0
   IBRION = -1
   ISIF = 3
   ISMEAR = -5
   ISPIN = 2
   LAECHG = True
   LASPH = True
   LCHARG = True
   LORBIT = 11
   LREAL = Auto
   LVHAR = True
   LWAVE = False
   MAGMOM = 2*0.6 2*7.0 8*0.6
   NELM = 1000
   NSW = 0
   PREC = Accurate
   SIGMA = 0.05

 POTCAR:    PAW_PBE Cs_sv 08Apr2002               
 POTCAR:    PAW_PBE Gd 23Dec2003                  
 POTCAR:    PAW_PBE Hg 06Sep2000                  
 POTCAR:    PAW_PBE Se 06Sep2000                  
 POTCAR:    PAW_PBE Cs_sv 08Apr2002               
   SHA256 =  c1463496f0f6037ed62c6012a8013a89ee9ad6ffb38599dcd6c079e7ed31779b Cs_sv/POTCAR          
   COPYR  = (c) Copyright 08Apr2002 Georg Kresse                                                    
   COPYR  = This file is part of the software VASP. Any use, copying, and all other rights are regul
   COPYR  = If you do not have a valid VASP license, you may not use, copy or distribute this file. 
   VRHFIN =Cs: 5s5p6s                                                                               
   LEXCH  = PE                                                                                      
   EATOM  =   555.6835 eV,   40.8416 Ry                                                             
                                                                                                    
   TITEL  = PAW_PBE Cs_sv 08Apr2002                                                                 
   LULTRA =        F    use ultrasoft PP ?                                                          
   IUNSCR =        1    unscreen: 0-lin 1-nonlin 2-no                                               
   RPACOR =    2.200    partial core radius                                                         
   POMASS =  132.900; ZVAL   =    9.000    mass and valenz                                          
   RCORE  =    2.500    outmost cutoff radius                                                       
   RWIGS  =    2.500; RWIGS  =    1.323    wigner-seitz radius (au A)                               
   ENMAX  =  220.318; ENMIN  =  165.238 eV                                                          
   RCLOC  =    2.207    cutoff for local pot                                                        
   LCOR   =        T    correct aug charges                                                         
   LPAW   =        T    paw PP                                                                      
   EAUG   =  407.933                                                                                
   DEXC   =    0.000                                                                                
   RMAX   =    2.554    core radius for proj-oper                                                   
   RAUG   =    1.300    factor for augmentation sphere                                              
   RDEP   =    2.590    radius for radial grids                                                     
   RDEPT  =    2.117    core radius for aug-charge                                                  
                                                                                                    
   Atomic configuration                                                                             
   13 entries                                                                                       
     n  l   j            E        occ.                                                              
     1  0  0.50    -35790.1377   2.0000                                                             
     2  0  0.50     -5613.6201   2.0000                                                             
     2  1  1.50     -5035.0101   6.0000                                                             
     3  0  0.50     -1167.0767   2.0000                                                             
     3  1  1.50      -980.9754   6.0000                                                             
     3  2  2.50      -708.0703  10.0000                                                             
     4  0  0.50      -220.2386   2.0000                                                             
     4  1  1.50      -160.7596   6.0000                                                             
     4  2  2.50       -74.2354  10.0000                                                             
     5  0  0.50       -26.7287   2.0000                                                             
     6  0  0.50        -2.0862   1.0000                                                             
     5  1  1.50       -13.5159   6.0000                                                             
     5  2  2.50        -0.4136   0.0000                                                             
   Description                                                                                      
     l       E           TYP  RCUT    TYP  RCUT                                                     
     0    -26.7287425     23  1.900                                                                 
     0     -2.0862306     23  1.900                                                                 
     1    -13.5158719     23  2.500                                                                 
     1     -2.7211652     23  2.500                                                                 
     2     -0.4136171     23  2.500                                                                 
  local pseudopotential read in
  partial core-charges read in
  partial kinetic energy density read in
  atomic valenz-charges read in
  non local Contribution for L=            0  read in
    real space projection operators read in
  non local Contribution for L=            0  read in
    real space projection operators read in
  non local Contribution for L=            1  read in
    real space projection operators read in
  non local Contribution for L=            1  read in
    real space projection operators read in
  non local Contribution for L=            2  read in
    real space projection operators read in
    PAW grid and wavefunctions read in
 
   number of l-projection  operators is LMAX  =            5
   number of lm-projection operators is LMMAX =           13
 
 POTCAR:    PAW_PBE Gd 23Dec2003                  
   SHA256 =  58854b40b4643190560b0e2b62d2ab46bea96585f82c6231a0f4f44b8c3188dc Gd/POTCAR             
   COPYR  = (c) Copyright 23Dec2003 Georg Kresse                                                    
   COPYR  = This file is part of the software VASP. Any use, copying, and all other rights are regul
   COPYR  = If you do not have a valid VASP license, you may not use, copy or distribute this file. 
   VRHFIN =Gd : [core=Xe4]                                                                          
   LEXCH  = PE                                                                                      
   EATOM  =  3047.6032 eV,  223.9925 Ry                                                             
                                                                                                    
   TITEL  = PAW_PBE Gd 23Dec2003                                                                    
   LULTRA =        F    use ultrasoft PP ?                                                          
   IUNSCR =        1    unscreen: 0-lin 1-nonlin 2-no                                               
   RPACOR =    2.300    partial core radius                                                         
   POMASS =  157.250; ZVAL   =   18.000    mass and valenz                                          
   RCORE  =    2.800    outmost cutoff radius                                                       
   RWIGS  =    2.800; RWIGS  =    1.482    wigner-seitz radius (au A)                               
   ENMAX  =  256.472; ENMIN  =  192.354 eV                                                          
   RCLOC  =    2.316    cutoff for local pot                                                        
   LCOR   =        T    correct aug charges                                                         
   LPAW   =        T    paw PP                                                                      
   EAUG   =  537.243                                                                                
   DEXC   =    0.000                                                                                
   RMAX   =    2.857    core radius for proj-oper                                                   
   RAUG   =    1.300    factor for augmentation sphere                                              
   RDEP   =    2.921    radius for radial grids                                                     
   RDEPT  =    2.247    core radius for aug-charge                                                  
                                                                                                    
   Atomic configuration                                                                             
   14 entries                                                                                       
     n  l   j            E        occ.                                                              
     1  0  0.50    -50087.2354   2.0000                                                             
     2  0  0.50     -8269.2182   2.0000                                                             
     2  1  1.50     -7357.3672   6.0000                                                             
     3  0  0.50     -1833.2681   2.0000                                                             
     3  1  1.50     -1550.9376   6.0000                                                             
     3  2  2.50     -1178.7204  10.0000                                                             
     4  0  0.50      -369.2978   2.0000                                                             
     4  1  1.50      -276.2601   6.0000                                                             
     4  2  2.50      -147.6611  10.0000                                                             
     5  0  0.50       -49.7260   2.0000                                                             
     6  0  0.50        -4.1254   2.0000                                                             
     5  1  1.50       -27.2538   6.0000                                                             
     5  2  2.50        -2.5337   1.0000                                                             
     4  3  2.50        -8.7140   7.0000                                                             
   Description                                                                                      
     l       E           TYP  RCUT    TYP  RCUT                                                     
     0    -49.7259557     23  2.400                                                                 
     0     -4.1254107     23  2.400                                                                 
     1    -27.2537518     23  2.400                                                                 
     1     20.4087390     23  2.400                                                                 
     2     -2.5337329     23  2.500                                                                 
     2     13.6058260     23  2.500                                                                 
     3     -8.7140389     23  2.800                                                                 
     3     -9.5240782     23  2.800                                                                 
  local pseudopotential read in
  partial core-charges read in
  partial kinetic energy density read in
  atomic valenz-charges read in
  non local Contribution for L=            0  read in
    real space projection operators read in
  non local Contribution for L=            0  read in
    real space projection operators read in
  non local Contribution for L=            1  read in
    real space projection operators read in
  non local Contribution for L=            1  read in
    real space projection operators read in
  non local Contribution for L=            2  read in
    real space projection operators read in
  non local Contribution for L=            2  read in
    real space projection operators read in
  non local Contribution for L=            3  read in
    real space projection operators read in
  non local Contribution for L=            3  read in
    real space projection operators read in
    PAW grid and wavefunctions read in
 
   number of l-projection  operators is LMAX  =            8
   number of lm-projection operators is LMMAX =           32
 
 POTCAR:    PAW_PBE Hg 06Sep2000                  
   SHA256 =  b58054e5facb8a6c456f8fea289fc655b681c0fa06131ba074282c377c596e89 Hg/POTCAR             
   COPYR  = (c) Copyright 06Sep2000 Georg Kresse                                                    
   COPYR  = This file is part of the software VASP. Any use, copying, and all other rights are regul
   COPYR  = If you do not have a valid VASP license, you may not use, copy or distribute this file. 
   VRHFIN =Hg: 10s 2d fine mesh  91                                                                 
   LEXCH  = PE                                                                                      
   EATOM  =  1148.5194 eV,   84.4138 Ry                                                             
                                                                                                    
   TITEL  = PAW_PBE Hg 06Sep2000                                                                    
   LULTRA =        F    use ultrasoft PP ?                                                          
   IUNSCR =        1    unscreen: 0-lin 1-nonlin 2-no                                               
   RPACOR =    2.500    partial core radius                                                         
   POMASS =  200.590; ZVAL   =   12.000    mass and valenz                                          
   RCORE  =    2.500    outmost cutoff radius                                                       
   RWIGS  =    3.050; RWIGS  =    1.614    wigner-seitz radius (au A)                               
   ENMAX  =  233.204; ENMIN  =  174.903 eV                                                          
   RCLOC  =    2.106    cutoff for local pot                                                        
   LCOR   =        T    correct aug charges                                                         
   LPAW   =        T    paw PP                                                                      
   EAUG   =  352.362                                                                                
   DEXC   =    0.000                                                                                
   RMAX   =    2.557    core radius for proj-oper                                                   
   RAUG   =    1.300    factor for augmentation sphere                                              
   RDEP   =    2.614    radius for radial grids                                                     
   RDEPT  =    2.171    core radius for aug-charge                                                  
                                                                                                    
   Atomic configuration                                                                             
   15 entries                                                                                       
     n  l   j            E        occ.                                                              
     1  0  0.50    -83145.9708   2.0000                                                             
     2  0  0.50    -14733.6065   2.0000                                                             
     2  1  1.50    -12701.0377   6.0000                                                             
     3  0  0.50     -3496.3892   2.0000                                                             
     3  1  1.50     -2909.4293   6.0000                                                             
     3  2  2.50     -2293.1414  10.0000                                                             
     4  0  0.50      -768.8230   2.0000                                                             
     4  1  1.50      -576.4602   6.0000                                                             
     4  2  2.50      -348.5618  10.0000                                                             
     4  3  3.50       -95.9099  14.0000                                                             
     5  0  0.50      -118.1284   2.0000                                                             
     5  1  1.50       -66.4778   6.0000                                                             
     5  2  2.50        -9.8614  10.0000                                                             
     6  0  0.50        -6.8147   2.0000                                                             
     6  1  1.50        -6.8029   0.0000                                                             
   Description                                                                                      
     l       E           TYP  RCUT    TYP  RCUT                                                     
     2     -9.8614287     23  2.500                                                                 
     2    -11.2220113     23  2.500                                                                 
     0     -6.8147273     23  2.500                                                                 
     0     -4.0297848     23  2.500                                                                 
     1     -2.7211652     23  2.500                                                                 
     1      8.0997183     23  2.500                                                                 
  local pseudopotential read in
  partial core-charges read in
  partial kinetic energy density read in
  atomic valenz-charges read in
  non local Contribution for L=            2  read in
    real space projection operators read in
  non local Contribution for L=            2  read in
    real space projection operators read in
  non local Contribution for L=            0  read in
    real space projection operators read in
  non local Contribution for L=            0  read in
    real space projection operators read in
  non local Contribution for L=            1  read in
    real space projection operators read in
  non local Contribution for L=            1  read in
    real space projection operators read in
    PAW grid and wavefunctions read in
 
   number of l-projection  operators is LMAX  =            6
   number of lm-projection operators is LMMAX =           18
 
 POTCAR:    PAW_PBE Se 06Sep2000                  
   SHA256 =  eabb916e6b4c819dc065ce039373bc328651da483898f08fb9e49c498452bf12 Se/POTCAR             
   COPYR  = (c) Copyright 06Sep2000 Georg Kresse                                                    
   COPYR  = This file is part of the software VASP. Any use, copying, and all other rights are regul
   COPYR  = If you do not have a valid VASP license, you may not use, copy or distribute this file. 
   VRHFIN =Se: s2p4                                                                                 
   LEXCH  = PE                                                                                      
   EATOM  =   257.1286 eV,   18.8984 Ry                                                             
                                                                                                    
   TITEL  = PAW_PBE Se 06Sep2000                                                                    
   LULTRA =        F    use ultrasoft PP ?                                                          
   IUNSCR =        1    unscreen: 0-lin 1-nonlin 2-no                                               
   RPACOR =    1.900    partial core radius                                                         
   POMASS =   78.960; ZVAL   =    6.000    mass and valenz                                          
   RCORE  =    2.100    outmost cutoff radius                                                       
   RWIGS  =    2.200; RWIGS  =    1.164    wigner-seitz radius (au A)                               
   ENMAX  =  211.555; ENMIN  =  158.666 eV                                                          
   ICORE  =        3    local potential                                                             
   LCOR   =        T    correct aug charges                                                         
   LPAW   =        T    paw PP                                                                      
   EAUG   =  446.842                                                                                
   DEXC   =    0.000                                                                                
   RMAX   =    2.147    core radius for proj-oper                                                   
   RAUG   =    1.300    factor for augmentation sphere                                              
   RDEP   =    2.177    radius for radial grids                                                     
   RDEPT  =    1.928    core radius for aug-charge                                                  
                                                                                                    
   Atomic configuration                                                                             
   10 entries                                                                                       
     n  l   j            E        occ.                                                              
     1  0  0.50    -12503.4787   2.0000                                                             
     2  0  0.50     -1606.9547   2.0000                                                             
     2  1  1.50     -1413.3140   6.0000                                                             
     3  0  0.50      -213.4885   2.0000                                                             
     3  1  1.50      -152.9538   6.0000                                                             
     3  2  2.50       -53.1221  10.0000                                                             
     4  0  0.50       -17.2865   2.0000                                                             
     4  1  0.50        -6.5110   4.0000                                                             
     4  2  2.50        -6.8029   0.0000                                                             
     4  3  2.50        -6.8029   0.0000                                                             
   Description                                                                                      
     l       E           TYP  RCUT    TYP  RCUT                                                     
     0    -17.2865377     23  2.100                                                                 
     0    -15.3094411     23  2.100                                                                 
     1     -6.5110275     23  2.100                                                                 
     1     -0.0695192     23  2.100                                                                 
     2     -6.8029130     23  2.100                                                                 
     3     -1.3605826      7  2.100                                                                 
  local pseudopotential read in
  partial core-charges read in
  partial kinetic energy density read in
  atomic valenz-charges read in
  non local Contribution for L=            0  read in
    real space projection operators read in
  non local Contribution for L=            0  read in
    real space projection operators read in
  non local Contribution for L=            1  read in
    real space projection operators read in
  non local Contribution for L=            1  read in
    real space projection operators read in
  non local Contribution for L=            2  read in
    real space projection operators read in
    PAW grid and wavefunctions read in
 
   number of l-projection  operators is LMAX  =            5
   number of lm-projection operators is LMMAX =           13
 
 Optimization of the real space projectors (new method)

 maximal supplied QI-value         = 15.12
 optimisation between [QCUT,QGAM] = [ 11.64, 23.28] = [ 37.95,151.78] Ry 
 Optimized for a Real-space Cutoff    1.58 Angstroem

   l    n(q)    QCUT    max X(q) W(low)/X(q) W(high)/X(q)  e(spline) 
   0     11    11.641    25.322    0.32E-04    0.44E-04    0.76E-06
   0     11    11.641    99.187    0.29E-04    0.43E-04    0.73E-06
   1     11    11.641    11.761    0.14E-03    0.20E-04    0.36E-06
   1     11    11.641     8.275    0.16E-03    0.25E-04    0.39E-06
   2     10    11.641     3.829    0.40E-04    0.12E-03    0.26E-06
 Optimization of the real space projectors (new method)

 maximal supplied QI-value         = 13.42
 optimisation between [QCUT,QGAM] = [ 11.67, 23.35] = [ 38.16,152.62] Ry 
 Optimized for a Real-space Cutoff    1.63 Angstroem

   l    n(q)    QCUT    max X(q) W(low)/X(q) W(high)/X(q)  e(spline) 
   0     11    11.673    10.501    0.14E-04    0.17E-05    0.21E-07
   0     11    11.673     9.148    0.21E-04    0.32E-05    0.45E-07
   1     11    11.673     4.035    0.33E-05    0.11E-04    0.84E-07
   1     11    11.673     4.388    0.11E-04    0.47E-04    0.34E-06
   2     10    11.673    20.656    0.12E-04    0.28E-04    0.54E-06
   2     10    11.673    12.651    0.11E-04    0.26E-04    0.51E-06
   3     10    11.673    61.921    0.19E-03    0.22E-03    0.23E-06
   3     10    11.673    48.328    0.20E-03    0.23E-03    0.23E-06
 Optimization of the real space projectors (new method)

 maximal supplied QI-value         = 15.12
 optimisation between [QCUT,QGAM] = [ 11.64, 23.28] = [ 37.95,151.78] Ry 
 Optimized for a Real-space Cutoff    1.49 Angstroem

   l    n(q)    QCUT    max X(q) W(low)/X(q) W(high)/X(q)  e(spline) 
   2      9    11.641    85.054    0.63E-04    0.13E-03    0.51E-06
   2      9    11.641    84.141    0.64E-04    0.13E-03    0.51E-06
   0     10    11.641   132.931    0.15E-03    0.13E-03    0.47E-06
   0     10    11.641   100.595    0.15E-03    0.13E-03    0.46E-06
   1     10    11.641    35.860    0.15E-03    0.79E-04    0.27E-06
   1     10    11.641    30.554    0.14E-03    0.70E-04    0.24E-06
 Optimization of the real space projectors (new method)

 maximal supplied QI-value         = 17.95
 optimisation between [QCUT,QGAM] = [ 11.67, 23.34] = [ 38.13,152.52] Ry 
 Optimized for a Real-space Cutoff    1.25 Angstroem

   l    n(q)    QCUT    max X(q) W(low)/X(q) W(high)/X(q)  e(spline) 
   0      9    11.669   133.320    0.17E-03    0.44E-04    0.69E-07
   0      9    11.669   111.601    0.18E-03    0.46E-04    0.72E-07
   1      8    11.669    47.222    0.22E-03    0.37E-03    0.10E-06
   1      8    11.669    33.775    0.22E-03    0.36E-03    0.10E-06
   2      8    11.669     3.720    0.19E-03    0.46E-04    0.50E-07
  PAW_PBE Cs_sv 08Apr2002               :
 energy of atom  1       EATOM= -555.6835
 kinetic energy error for atom=    0.0016 (will be added to EATOM!!)
  PAW_PBE Gd 23Dec2003                  :
 energy of atom  2       EATOM=-3047.6032
 kinetic energy error for atom=    0.0019 (will be added to EATOM!!)
  PAW_PBE Hg 06Sep2000                  :
 energy of atom  3       EATOM=-1148.5194
 kinetic energy error for atom=    0.0037 (will be added to EATOM!!)
  PAW_PBE Se 06Sep2000                  :
 energy of atom  4       EATOM= -257.1286
 kinetic energy error for atom=    0.0007 (will be added to EATOM!!)
 
 
 POSCAR: Cs2 Gd2 Hg2 Se6
  positions in direct lattice
  No initial velocities read in
 exchange correlation table for  LEXCH =        8
   RHO(1)=    0.500       N(1)  =     2000
   RHO(2)=  100.500       N(2)  =     4000

 VTST: version 4.2, (08/11/21)

 CHAIN: initializing optimizer
 
 OPT: Using VASP Dynamics algorithm
 CHAIN: Read ICHAIN             0
 
 POSCAR: Cs2 Gd2 Hg2 Se6
  positions in direct lattice
  No initial velocities read in
 


--------------------------------------------------------------------------------------------------------


 ion  position               nearest neighbor table
   1  0.744  0.256  0.250-
   2  0.256  0.744  0.750-
   3  0.000  0.000  0.500-   9 2.96  12 2.96   9 2.96  12 2.96   7 2.98   8 2.98   5 3.63   6 3.63
                             6 3.63   5 3.63
   4  0.000  0.000  0.000-  10 2.96  11 2.96  10 2.96  11 2.96   7 2.98   8 2.98   5 3.63   6 3.63
                             6 3.63   5 3.63
   5  0.546  0.454  0.750-   9 2.63  10 2.63   8 2.78   8 2.78   3 3.63   3 3.63   4 3.63   4 3.63

   6  0.454  0.546  0.250-  11 2.63  12 2.63   7 2.78   7 2.78   3 3.63   3 3.63   4 3.63   4 3.63

   7  0.060  0.940  0.250-   6 2.78   6 2.78   4 2.98   3 2.98
   8  0.940  0.060  0.750-   5 2.78   5 2.78   4 2.98   3 2.98
   9  0.619  0.381  0.542-   5 2.63   3 2.96   3 2.96
  10  0.619  0.381  0.958-   5 2.63   4 2.96   4 2.96
  11  0.381  0.619  0.042-   6 2.63   4 2.96   4 2.96
  12  0.381  0.619  0.458-   6 2.63   3 2.96   3 2.96
 
  LATTYP: Found a base centered orthorhombic cell.
 ALAT       =     4.3435240000
 B/A-ratio  =     3.7632806910
 C/A-ratio  =     2.5906416081
  
  Lattice vectors:
  
 A1 = (   2.1717620000,  -8.1729500000,   0.0000000000)
 A2 = (   2.1717620000,   8.1729500000,   0.0000000000)
 A3 = (   0.0000000000,   0.0000000000,  11.2525140000)


Analysis of symmetry for initial positions (statically):
=====================================================================
 Subroutine PRICEL returns:
 Original cell was already a primitive cell.
 

 Routine SETGRP: Setting up the symmetry group for a 
 base centered orthorhombic supercell.


 Subroutine GETGRP returns: Found  8 space group operations
 (whereof  4 operations were pure point group operations)
 out of a pool of  8 trial point group operations.


The static configuration has the point symmetry C_2h.
 The point group associated with its full space group is D_2h.


Analysis of symmetry for dynamics (positions and initial velocities):
=====================================================================
 Subroutine PRICEL returns:
 Original cell was already a primitive cell.
 

 Routine SETGRP: Setting up the symmetry group for a 
 base centered orthorhombic supercell.


 Subroutine GETGRP returns: Found  8 space group operations
 (whereof  4 operations were pure point group operations)
 out of a pool of  8 trial point group operations.


The dynamic configuration has the point symmetry C_2h.
 The point group associated with its full space group is D_2h.


Analysis of structural, dynamic, and magnetic symmetry:
=====================================================================
 Subroutine PRICEL returns:
 Original cell was already a primitive cell.
 

 Routine SETGRP: Setting up the symmetry group for a 
 base centered orthorhombic supercell.


 Subroutine GETGRP returns: Found  8 space group operations
 (whereof  4 operations were pure point group operations)
 out of a pool of  8 trial point group operations.


The overall configuration has the point symmetry C_2h.
 The point group associated with its full space group is D_2h.


 Subroutine INISYM returns: Found  8 space group operations
 (whereof  4 operations are pure point group operations),
 and found     1 'primitive' translations


----------------------------------------------------------------------------------------

                                     Primitive cell                                     

  volume of cell :     399.4575

  direct lattice vectors                    reciprocal lattice vectors
     2.171762000 -8.172950000  0.000000000     0.230227806 -0.061177421  0.000000000
     2.171762000  8.172950000  0.000000000     0.230227806  0.061177421 -0.000000000
     0.000000000  0.000000000 11.252514000    -0.000000000  0.000000000  0.088869030

  length of vectors
     8.456575068  8.456575068 11.252514000     0.238217378  0.238217378  0.088869030

  position of ions in fractional coordinates (direct lattice)
     0.743818000  0.256182000  0.250000000
     0.256182000  0.743818000  0.750000000
     0.000000000  0.000000000  0.500000000
     0.000000000  0.000000000  0.000000000
     0.545512000  0.454488000  0.750000000
     0.454488000  0.545512000  0.250000000
     0.060266000  0.939734000  0.250000000
     0.939734000  0.060266000  0.750000000
     0.619292000  0.380708000  0.542289000
     0.619292000  0.380708000  0.957711000
     0.380708000  0.619292000  0.042289000
     0.380708000  0.619292000  0.457711000

  ion indices of the primitive-cell ions
   primitive index   ion index
                 1           1
                 2           2
                 3           3
                 4           4
                 5           5
                 6           6
                 7           7
                 8           8
                 9           9
                10          10
                11          11
                12          12

----------------------------------------------------------------------------------------

 
 
 KPOINTS: Kpoints from vasprun.xml                

Automatic generation of k-mesh.
 Grid dimensions read from file:
 generate k-points for:    4    4    3

 Generating k-lattice:

  Cartesian coordinates                     Fractional coordinates (reciprocal lattice)
     0.057556951 -0.015294355  0.000000000     0.250000000 -0.000000000  0.000000000
     0.057556951  0.015294355 -0.000000000    -0.000000000  0.250000000  0.000000000
    -0.000000000  0.000000000  0.029623010     0.000000000  0.000000000  0.333333333

  Length of vectors
     0.059554345  0.059554345  0.029623010

  Shift w.r.t. Gamma in fractional coordinates (k-lattice)
     0.000000000  0.000000000  0.000000000

 TETIRR: Found     74 inequivalent tetrahedra from      288
 
 Subroutine IBZKPT returns following result:
 ===========================================
 
 Found     14 irreducible k-points:
 
 Following reciprocal coordinates:
            Coordinates               Weight
  0.000000  0.000000  0.000000      1.000000
  0.250000  0.000000  0.000000      4.000000
  0.500000  0.000000  0.000000      2.000000
  0.250000  0.250000  0.000000      2.000000
  0.500000  0.250000  0.000000      4.000000
 -0.250000  0.250000  0.000000      2.000000
  0.500000  0.500000  0.000000      1.000000
  0.000000  0.000000  0.333333      2.000000
  0.250000  0.000000  0.333333      8.000000
  0.500000  0.000000  0.333333      4.000000
  0.250000  0.250000  0.333333      4.000000
  0.500000  0.250000  0.333333      8.000000
 -0.250000  0.250000  0.333333      4.000000
  0.500000  0.500000  0.333333      2.000000
 
 Following cartesian coordinates:
            Coordinates               Weight
  0.000000  0.000000  0.000000      1.000000
  0.057557 -0.015294  0.000000      4.000000
  0.115114 -0.030589  0.000000      2.000000
  0.115114  0.000000  0.000000      2.000000
  0.172671 -0.015294  0.000000      4.000000
  0.000000  0.030589  0.000000      2.000000
  0.230228  0.000000  0.000000      1.000000
  0.000000  0.000000  0.029623      2.000000
  0.057557 -0.015294  0.029623      8.000000
  0.115114 -0.030589  0.029623      4.000000
  0.115114  0.000000  0.029623      4.000000
  0.172671 -0.015294  0.029623      8.000000
  0.000000  0.030589  0.029623      4.000000
  0.230228  0.000000  0.029623      2.000000
 


--------------------------------------------------------------------------------------------------------




 Dimension of arrays:
   k-points           NKPTS =     14   k-points in BZ     NKDIM =     14   number of bands    NBANDS=     80
   number of dos      NEDOS =    301   number of ions     NIONS =     12
   non local maximal  LDIM  =      8   non local SUM 2l+1 LMDIM =     32
   total plane-waves  NPLWV = 344064
   max r-space proj   IRMAX =  15595   max aug-charges    IRDMAX=  53835
   dimension x,y,z NGX =    64 NGY =   64 NGZ =   84
   dimension x,y,z NGXF=   128 NGYF=  128 NGZF=  168
   support grid    NGXF=   128 NGYF=  128 NGZF=  168
   ions per type =               2   2   2   6
   NGX,Y,Z   is equivalent  to a cutoff of  12.58, 12.58, 12.41 a.u.
   NGXF,Y,Z  is equivalent  to a cutoff of  25.16, 25.16, 24.82 a.u.

 SYSTEM =  unknown system                          
 POSCAR =  Cs2 Gd2 Hg2 Se6                         

 Startparameter for this run:
   NWRITE =      2    write-flag & timer
   PREC   = accura    normal or accurate (medium, high low for compatibility)
   ISTART =      0    job   : 0-new  1-cont  2-samecut
   ICHARG =      2    charge: 1-file 2-atom 10-const
   ISPIN  =      2    spin polarized calculation?
   LNONCOLLINEAR =      F non collinear calculations
   LSORBIT =      F    spin-orbit coupling
   INIWAV =      1    electr: 0-lowe 1-rand  2-diag
   LASPH  =      T    aspherical Exc in radial PAW
 Electronic Relaxation 1
   ENCUT  =  520.0 eV  38.22 Ry    6.18 a.u.  15.72 15.72 20.92*2*pi/ulx,y,z
   ENINI  =  520.0     initial cutoff
   ENAUG  =  537.2 eV  augmentation charge cutoff
   NELM   =   1000;   NELMIN=  2; NELMDL= -5     # of ELM steps 
   EDIFF  = 0.1E-04   stopping-criterion for ELM
   LREAL  =      T    real-space projection
   NLSPLINE    = F    spline interpolate recip. space projectors
   LCOMPAT=      F    compatible to vasp.4.4
   GGA_COMPAT  = T    GGA compatible to vasp.4.4-vasp.4.6
   LMAXPAW     = -100 max onsite density
   LMAXMIX     =    2 max onsite mixed and CHGCAR
   VOSKOWN=      0    Vosko Wilk Nusair interpolation
   ROPT   =   -0.00025  -0.00025  -0.00025  -0.00025
 Ionic relaxation
   EDIFFG = 0.1E-03   stopping-criterion for IOM
   NSW    =      0    number of steps for IOM
   NBLOCK =      1;   KBLOCK =      1    inner block; outer block 
   IBRION =     -1    ionic relax: 0-MD 1-quasi-New 2-CG
   NFREE  =      0    steps in history (QN), initial steepest desc. (CG)
   ISIF   =      3    stress and relaxation
   IWAVPR =     10    prediction:  0-non 1-charg 2-wave 3-comb
   ISYM   =      2    0-nonsym 1-usesym 2-fastsym
   LCORR  =      T    Harris-Foulkes like correction to forces

   POTIM  = 0.5000    time-step for ionic-motion
   TEIN   =    0.0    initial temperature
   TEBEG  =    0.0;   TEEND  =   0.0 temperature during run
   SMASS  =  -3.00    Nose mass-parameter (am)
   estimated Nose-frequenzy (Omega)   =  0.10E-29 period in steps = 0.13E+47 mass=  -0.163E-26a.u.
   SCALEE = 1.0000    scale energy and forces
   NPACO  =    256;   APACO  = 10.0  distance and # of slots for P.C.
   PSTRESS=    0.0 pullay stress

  Mass of Ions in am
   POMASS = 132.90157.25200.59 78.96
  Ionic Valenz
   ZVAL   =   9.00 18.00 12.00  6.00
  Atomic Wigner-Seitz radii
   RWIGS  =  -1.00 -1.00 -1.00 -1.00
  virtual crystal weights 
   VCA    =   1.00  1.00  1.00  1.00
   NELECT =     114.0000    total number of electrons
   NUPDOWN=      -1.0000    fix difference up-down

 DOS related values:
   EMIN   =  10.00;   EMAX   =-10.00  energy-range for DOS
   EFERMI =   0.00
   ISMEAR =    -5;   SIGMA  =   0.05  broadening in eV -4-tet -1-fermi 0-gaus

 Electronic relaxation 2 (details)
   IALGO  =     38    algorithm
   LDIAG  =      T    sub-space diagonalisation (order eigenvalues)
   LSUBROT=      F    optimize rotation matrix (better conditioning)
   TURBO    =      0    0=normal 1=particle mesh
   IRESTART =      0    0=no restart 2=restart with 2 vectors
   NREBOOT  =      0    no. of reboots
   NMIN     =      0    reboot dimension
   EREF     =   0.00    reference energy to select bands
   IMIX   =      4    mixing-type and parameters
     AMIX     =   0.40;   BMIX     =  1.00
     AMIX_MAG =   1.60;   BMIX_MAG =  1.00
     AMIN     =   0.10
     WC   =   100.;   INIMIX=   1;  MIXPRE=   1;  MAXMIX= -45

 Intra band minimization:
   WEIMIN = 0.0000     energy-eigenvalue tresh-hold
   EBREAK =  0.31E-07  absolut break condition
   DEPER  =   0.30     relativ break condition  

   TIME   =   0.40     timestep for ELM

  volume/ion in A,a.u.               =      33.29       224.64
  Fermi-wavevector in a.u.,A,eV,Ry     =   1.077837  2.036816 15.806318  1.161732
  Thomas-Fermi vector in A             =   2.213759
 
 Write flags
   LWAVE        =      F    write WAVECAR
   LDOWNSAMPLE  =      F    k-point downsampling of WAVECAR
   LCHARG       =      T    write CHGCAR
   LVTOT        =      F    write LOCPOT, total local potential
   LVHAR        =      T    write LOCPOT, Hartree potential only
   LELF         =      F    write electronic localiz. function (ELF)
   LORBIT       =     11    0 simple, 1 ext, 2 COOP (PROOUT), +10 PAW based schemes


 Dipole corrections
   LMONO  =      F    monopole corrections only (constant potential shift)
   LDIPOL =      F    correct potential (dipole corrections)
   IDIPOL =      0    1-x, 2-y, 3-z, 4-all directions 
   EPSILON=  1.0000000 bulk dielectric constant

 Exchange correlation treatment:
   GGA     =    --    GGA type
   LEXCH   =     8    internal setting for exchange type
   LIBXC   =     F    Libxc                    
   VOSKOWN =     0    Vosko Wilk Nusair interpolation
   LHFCALC =     F    Hartree Fock is set to
   LHFONE  =     F    Hartree Fock one center treatment
   AEXX    =    0.0000 exact exchange contribution

 Linear response parameters
   LEPSILON=     F    determine dielectric tensor
   LRPA    =     F    only Hartree local field effects (RPA)
   LNABLA  =     F    use nabla operator in PAW spheres
   LVEL    =     F    velocity operator in full k-point grid
   CSHIFT  =0.1000    complex shift for real part using Kramers Kronig
   OMEGAMAX=  -1.0    maximum frequency
   DEG_THRESHOLD= 0.2000000E-02 threshold for treating states as degnerate
   RTIME   =   -0.100 relaxation time in fs
  (WPLASMAI=    0.000 imaginary part of plasma frequency in eV, 0.658/RTIME)
   DFIELD  = 0.0000000 0.0000000 0.0000000 field for delta impulse in time
 
  Optional k-point grid parameters
   LKPOINTS_OPT  =     F    use optional k-point grid
   KPOINTS_OPT_MODE=     1    mode for optional k-point grid
 
 Orbital magnetization related:
   ORBITALMAG=     F  switch on orbital magnetization
   LCHIMAG   =     F  perturbation theory with respect to B field
   DQ        =  0.001000  dq finite difference perturbation B field
   LLRAUG    =     F  two centre corrections for induced B field



--------------------------------------------------------------------------------------------------------


 Static calculation
 charge density and potential will be updated during run
 spin polarized calculation
 Variant of blocked Davidson
 Davidson routine will perform the subspace rotation
 perform sub-space diagonalisation
    after iterative eigenvector-optimisation
 modified Broyden-mixing scheme, WC =      100.0
 initial mixing is a Kerker type mixing with AMIX =  0.4000 and BMIX =      1.0000
 Hartree-type preconditioning will be used
 using additional bands            23
 real space projection scheme for non local part
 use partial core corrections
 calculate Harris-corrections to forces 
   (improved forces if not selfconsistent)
 use gradient corrections 
 use of overlap-Matrix (Vanderbilt PP)
 Fermi weights with tetrahedron method with Bloechl corrections


--------------------------------------------------------------------------------------------------------


  energy-cutoff  :      520.00
  volume of cell :      399.46
      direct lattice vectors                 reciprocal lattice vectors
     2.171762000 -8.172950000  0.000000000     0.230227806 -0.061177421  0.000000000
     2.171762000  8.172950000  0.000000000     0.230227806  0.061177421 -0.000000000
     0.000000000  0.000000000 11.252514000    -0.000000000  0.000000000  0.088869030

  length of vectors
     8.456575068  8.456575068 11.252514000     0.238217378  0.238217378  0.088869030


 
 k-points in units of 2pi/SCALE and weight: Kpoints from vasprun.xml                
   0.00000000 -0.00000000  0.00000000       0.021
   0.05755695 -0.01529436  0.00000000       0.083
   0.11511390 -0.03058871  0.00000000       0.042
   0.11511390  0.00000000  0.00000000       0.042
   0.17267085 -0.01529436  0.00000000       0.083
   0.00000000  0.03058871  0.00000000       0.042
   0.23022781 -0.00000000  0.00000000       0.021
   0.00000000 -0.00000000  0.02962301       0.042
   0.05755695 -0.01529436  0.02962301       0.167
   0.11511390 -0.03058871  0.02962301       0.083
   0.11511390  0.00000000  0.02962301       0.083
   0.17267085 -0.01529436  0.02962301       0.167
   0.00000000  0.03058871  0.02962301       0.083
   0.23022781 -0.00000000  0.02962301       0.042
 
 k-points in reciprocal lattice and weights: Kpoints from vasprun.xml                
   0.00000000  0.00000000  0.00000000       0.021
   0.25000000  0.00000000  0.00000000       0.083
   0.50000000  0.00000000  0.00000000       0.042
   0.25000000  0.25000000  0.00000000       0.042
   0.50000000  0.25000000  0.00000000       0.083
  -0.25000000  0.25000000  0.00000000       0.042
   0.50000000  0.50000000  0.00000000       0.021
   0.00000000  0.00000000  0.33333333       0.042
   0.25000000  0.00000000  0.33333333       0.167
   0.50000000  0.00000000  0.33333333       0.083
   0.25000000  0.25000000  0.33333333       0.083
   0.50000000  0.25000000  0.33333333       0.167
  -0.25000000  0.25000000  0.33333333       0.083
   0.50000000  0.50000000  0.33333333       0.042
 
 position of ions in fractional coordinates (direct lattice) 
   0.74381800  0.25618200  0.25000000
   0.25618200  0.74381800  0.75000000
   0.00000000  0.00000000  0.50000000
   0.00000000  0.00000000  0.00000000
   0.54551200  0.45448800  0.75000000
   0.45448800  0.54551200  0.25000000
   0.06026600  0.93973400  0.25000000
   0.93973400  0.06026600  0.75000000
   0.61929200  0.38070800  0.54228900
   0.61929200  0.38070800  0.95771100
   0.38070800  0.61929200  0.04228900
   0.38070800  0.61929200  0.45771100
 
 position of ions in cartesian coordinates  (Angst):
   2.17176200 -3.98542465  2.81312850
   2.17176200  3.98542465  8.43938550
   0.00000000  0.00000000  5.62625700
   0.00000000  0.00000000  0.00000000
   2.17176200 -0.74393460  8.43938550
   2.17176200  0.74393460  2.81312850
   2.17176200  7.18784799  2.81312850
   2.17176200 -7.18784799  8.43938550
   2.17176200 -1.94993510  6.10211456
   2.17176200 -1.94993510 10.77665644
   2.17176200  1.94993510  0.47585756
   2.17176200  1.94993510  5.15039944
 


--------------------------------------------------------------------------------------------------------


 k-point   1 :   0.0000 0.0000 0.0000  plane waves:   10763
 k-point   2 :   0.2500 0.0000 0.0000  plane waves:   10756
 k-point   3 :   0.5000 0.0000 0.0000  plane waves:   10780
 k-point   4 :   0.2500 0.2500 0.0000  plane waves:   10768
 k-point   5 :   0.5000 0.2500 0.0000  plane waves:   10755
 k-point   6 :  -0.2500 0.2500 0.0000  plane waves:   10742
 k-point   7 :   0.5000 0.5000 0.0000  plane waves:   10714
 k-point   8 :   0.0000 0.0000 0.3333  plane waves:   10746
 k-point   9 :   0.2500 0.0000 0.3333  plane waves:   10758
 k-point  10 :   0.5000 0.0000 0.3333  plane waves:   10776
 k-point  11 :   0.2500 0.2500 0.3333  plane waves:   10781
 k-point  12 :   0.5000 0.2500 0.3333  plane waves:   10765
 k-point  13 :  -0.2500 0.2500 0.3333  plane waves:   10726
 k-point  14 :   0.5000 0.5000 0.3333  plane waves:   10736

 maximum and minimum number of plane-waves per node :     10781    10714

 maximum number of plane-waves:     10781
 maximum index in each direction: 
   IXMAX=   15   IYMAX=   15   IZMAX=   20
   IXMIN=  -16   IYMIN=  -16   IZMIN=  -21


 serial   3D FFT for wavefunctions
 parallel 3D FFT for charge:
    minimum data exchange during FFTs selected (reduces bandwidth)


 total amount of memory used by VASP MPI-rank0   271934. kBytes
=======================================================================

   base      :      30000. kBytes
   nonlr-proj:      23187. kBytes
   fftplans  :      24745. kBytes
   grid      :      94371. kBytes
   one-center:       1179. kBytes
   wavefun   :      98452. kBytes
 
     INWAV:  cpu time      0.0001: real time      0.0003
 Broyden mixing: mesh for mixing (old mesh)
   NGX = 31   NGY = 31   NGZ = 41
  (NGX  =128   NGY  =128   NGZ  =168)
  gives a total of  39401 points

 initial charge density was supplied:
 charge density of overlapping atoms calculated
 number of electron     114.0000000 magnetization      20.0000000
 keeping initial charge density in first step


--------------------------------------------------------------------------------------------------------


 Maximum index for non-local projection operator         15115
 Maximum index for augmentation-charges         12994 (set IRDMAX)


--------------------------------------------------------------------------------------------------------


 First call to EWALD:  gamma=   0.241
 Maximum number of real-space cells 4x 4x 2
 Maximum number of reciprocal cells 3x 3x 4

    FEWALD:  cpu time      0.0008: real time      0.0008


--------------------------------------- Iteration      1(   1)  ---------------------------------------


    POTLOK:  cpu time      0.1704: real time      0.2088
    SETDIJ:  cpu time      1.9641: real time      1.9649
     EDDAV:  cpu time      3.3329: real time      3.3364
 BZINTS: Fermi energy:   15.577561;  114.000000 electrons
         Band energy: 0.442731E+03;  BLOECHL correction:   -0.164444
       DOS:  cpu time      0.0538: real time      0.0538
    --------------------------------------------
      LOOP:  cpu time      5.5212: real time      5.5640

 eigenvalue-minimisations  :  6384
 total energy-change (2. order) : 0.1213861E+04  (-0.4233343E+04)
 number of electron     114.0000000 magnetization      20.0000000
 augmentation part      114.0000000 magnetization      20.0000000

 Free energy of the ion-electron system (eV)
  ---------------------------------------------------
  alpha Z        PSCENC =       513.75853977
  Ewald energy   TEWEN  =     -6532.58387883
  -Hartree energ DENC   =     -4223.17646801
  -exchange      EXHF   =         0.00000000
  -V(xc)+E(xc)   XCENC  =       274.98513235
  PAW double counting   =      9197.30204652    -9505.52121766
  entropy T*S    EENTRO =         0.00000000
  eigenvalues    EBANDS =       442.73136773
  atomic energy  EATOM  =     11046.36508586
  Solvation  Ediel_sol  =         0.00000000
  ---------------------------------------------------
  free energy    TOTEN  =      1213.86060772 eV

  energy without entropy =     1213.86060772  energy(sigma->0) =     1213.86060772


--------------------------------------------------------------------------------------------------------




--------------------------------------- Iteration      1(   2)  ---------------------------------------


     EDDAV:  cpu time      2.8629: real time      2.8649
 BZINTS: Fermi energy:    4.357364;  114.000000 electrons
         Band energy:-0.551526E+03;  BLOECHL correction:   -0.263749
       DOS:  cpu time      0.0517: real time      0.0517
    --------------------------------------------
      LOOP:  cpu time      2.9146: real time      2.9166

 eigenvalue-minimisations  :  5360
 total energy-change (2. order) :-0.9942578E+03  (-0.8883673E+03)
 number of electron     114.0000000 magnetization      20.0000000
 augmentation part      114.0000000 magnetization      20.0000000

 Free energy of the ion-electron system (eV)
  ---------------------------------------------------
  alpha Z        PSCENC =       513.75853977
  Ewald energy   TEWEN  =     -6532.58387883
  -Hartree energ DENC   =     -4223.17646801
  -exchange      EXHF   =         0.00000000
  -V(xc)+E(xc)   XCENC  =       274.98513235
  PAW double counting   =      9197.30204652    -9505.52121766
  entropy T*S    EENTRO =         0.00000000
  eigenvalues    EBANDS =      -551.52638732
  atomic energy  EATOM  =     11046.36508586
  Solvation  Ediel_sol  =         0.00000000
  ---------------------------------------------------
  free energy    TOTEN  =       219.60285268 eV

  energy without entropy =      219.60285268  energy(sigma->0) =      219.60285268


--------------------------------------------------------------------------------------------------------




--------------------------------------- Iteration      1(   3)  ---------------------------------------


     EDDAV:  cpu time      2.7920: real time      2.7936
 BZINTS: Fermi energy:    0.667398;  114.000000 electrons
         Band energy:-0.800047E+03;  BLOECHL correction:   -0.067583
       DOS:  cpu time      0.0478: real time      0.0478
    --------------------------------------------
      LOOP:  cpu time      2.8397: real time      2.8414

 eigenvalue-minimisations  :  5176
 total energy-change (2. order) :-0.2485209E+03  (-0.2304969E+03)
 number of electron     114.0000000 magnetization      20.0000000
 augmentation part      114.0000000 magnetization      20.0000000

 Free energy of the ion-electron system (eV)
  ---------------------------------------------------
  alpha Z        PSCENC =       513.75853977
  Ewald energy   TEWEN  =     -6532.58387883
  -Hartree energ DENC   =     -4223.17646801
  -exchange      EXHF   =         0.00000000
  -V(xc)+E(xc)   XCENC  =       274.98513235
  PAW double counting   =      9197.30204652    -9505.52121766
  entropy T*S    EENTRO =         0.00000000
  eigenvalues    EBANDS =      -800.04723844
  atomic energy  EATOM  =     11046.36508586
  Solvation  Ediel_sol  =         0.00000000
  ---------------------------------------------------
  free energy    TOTEN  =       -28.91799844 eV

  energy without entropy =      -28.91799844  energy(sigma->0) =      -28.91799844


--------------------------------------------------------------------------------------------------------




--------------------------------------- Iteration      1(   4)  ---------------------------------------


     EDDAV:  cpu time      3.0495: real time      3.0516
 BZINTS: Fermi energy:    0.446266;  114.000000 electrons
         Band energy:-0.832331E+03;  BLOECHL correction:   -0.024121
       DOS:  cpu time      0.0460: real time      0.0461
    --------------------------------------------
      LOOP:  cpu time      3.0955: real time      3.0976

 eigenvalue-minimisations  :  5816
 total energy-change (2. order) :-0.3228407E+02  (-0.3105263E+02)
 number of electron     114.0000000 magnetization      20.0000000
 augmentation part      114.0000000 magnetization      20.0000000

 Free energy of the ion-electron system (eV)
  ---------------------------------------------------
  alpha Z        PSCENC =       513.75853977
  Ewald energy   TEWEN  =     -6532.58387883
  -Hartree energ DENC   =     -4223.17646801
  -exchange      EXHF   =         0.00000000
  -V(xc)+E(xc)   XCENC  =       274.98513235
  PAW double counting   =      9197.30204652    -9505.52121766
  entropy T*S    EENTRO =         0.00000000
  eigenvalues    EBANDS =      -832.33130859
  atomic energy  EATOM  =     11046.36508586
  Solvation  Ediel_sol  =         0.00000000
  ---------------------------------------------------
  free energy    TOTEN  =       -61.20206859 eV

  energy without entropy =      -61.20206859  energy(sigma->0) =      -61.20206859


--------------------------------------------------------------------------------------------------------




--------------------------------------- Iteration      1(   5)  ---------------------------------------


     EDDAV:  cpu time      3.4699: real time      3.4719
 BZINTS: Fermi energy:    0.434590;  114.000000 electrons
         Band energy:-0.834142E+03;  BLOECHL correction:   -0.022861
       DOS:  cpu time      0.0446: real time      0.0446
    CHARGE:  cpu time      0.1618: real time      0.1618
    MIXING:  cpu time      0.0059: real time      0.0059
    --------------------------------------------
      LOOP:  cpu time      3.6821: real time      3.6842

 eigenvalue-minimisations  :  6864
 total energy-change (2. order) :-0.1810885E+01  (-0.1800647E+01)
 number of electron     113.9999987 magnetization      17.6009295
 augmentation part       13.6848212 magnetization      14.1152515

 Broyden mixing:
  rms(total) = 0.19953E+01    rms(broyden)= 0.19953E+01
  rms(prec ) = 0.25530E+01
  weight for this iteration     100.00

 Free energy of the ion-electron system (eV)
  ---------------------------------------------------
  alpha Z        PSCENC =       513.75853977
  Ewald energy   TEWEN  =     -6532.58387883
  -Hartree energ DENC   =     -4223.17646801
  -exchange      EXHF   =         0.00000000
  -V(xc)+E(xc)   XCENC  =       274.98513235
  PAW double counting   =      9197.30204652    -9505.52121766
  entropy T*S    EENTRO =         0.00000000
  eigenvalues    EBANDS =      -834.14219386
  atomic energy  EATOM  =     11046.36508586
  Solvation  Ediel_sol  =         0.00000000
  ---------------------------------------------------
  free energy    TOTEN  =       -63.01295387 eV

  energy without entropy =      -63.01295387  energy(sigma->0) =      -63.01295387


--------------------------------------------------------------------------------------------------------




--------------------------------------- Iteration      1(   6)  ---------------------------------------


    POTLOK:  cpu time      0.0149: real time      0.0155
    SETDIJ:  cpu time      1.9256: real time      1.9261
     EDDAV:  cpu time      3.5108: real time      3.5122
 BZINTS: Fermi energy:    5.782205;  114.000000 electrons
         Band energy:-0.685983E+03;  BLOECHL correction:   -0.092226
       DOS:  cpu time      0.0455: real time      0.0455
    CHARGE:  cpu time      0.1576: real time      0.1577
    MIXING:  cpu time      0.0062: real time      0.0138
    --------------------------------------------
      LOOP:  cpu time      5.6606: real time      5.6709

 eigenvalue-minimisations  :  6960
 total energy-change (2. order) :-0.5181470E+02  (-0.9923002E+01)
 number of electron     113.9999998 magnetization      16.7895459
 augmentation part       -3.2031502 magnetization      14.1551541

 Broyden mixing:
  rms(total) = 0.97413E+01    rms(broyden)= 0.97413E+01
  rms(prec ) = 0.12529E+02
  weight for this iteration     100.00

 eigenvalues of (default mixing * dielectric matrix)
  average eigenvalue GAMMA=   0.1436
  0.1436

 Free energy of the ion-electron system (eV)
  ---------------------------------------------------
  alpha Z        PSCENC =       513.75853977
  Ewald energy   TEWEN  =     -6532.58387883
  -Hartree energ DENC   =     -4350.15813788
  -exchange      EXHF   =         0.00000000
  -V(xc)+E(xc)   XCENC  =       280.82031208
  PAW double counting   =      9727.98486498   -10115.03172820
  entropy T*S    EENTRO =         0.00000000
  eigenvalues    EBANDS =      -685.98271105
  atomic energy  EATOM  =     11046.36508586
  Solvation  Ediel_sol  =         0.00000000
  ---------------------------------------------------
  free energy    TOTEN  =      -114.82765327 eV

  energy without entropy =     -114.82765327  energy(sigma->0) =     -114.82765327


--------------------------------------------------------------------------------------------------------




--------------------------------------- Iteration      1(   7)  ---------------------------------------


    POTLOK:  cpu time      0.0145: real time      0.0148
    SETDIJ:  cpu time      1.9259: real time      1.9267
     EDDAV:  cpu time      3.4242: real time      3.4266
 BZINTS: Fermi energy:    2.227638;  114.000000 electrons
         Band energy:-0.797900E+03;  BLOECHL correction:   -0.000000
       DOS:  cpu time      0.0243: real time      0.0243
    CHARGE:  cpu time      0.1583: real time      0.1584
    MIXING:  cpu time      0.0061: real time      0.0061
    --------------------------------------------
      LOOP:  cpu time      5.5534: real time      5.5569

 eigenvalue-minimisations  :  6784
 total energy-change (2. order) : 0.5067458E+02  (-0.9193703E+01)
 number of electron     113.9999989 magnetization      16.5546527
 augmentation part       11.0967526 magnetization      15.5180782

 Broyden mixing:
  rms(total) = 0.24370E+01    rms(broyden)= 0.24370E+01
  rms(prec ) = 0.25178E+01
  weight for this iteration     100.00

 eigenvalues of (default mixing * dielectric matrix)
  average eigenvalue GAMMA=   0.1938
  0.2843  0.1032

 Free energy of the ion-electron system (eV)
  ---------------------------------------------------
  alpha Z        PSCENC =       513.75853977
  Ewald energy   TEWEN  =     -6532.58387883
  -Hartree energ DENC   =     -4227.68442172
  -exchange      EXHF   =         0.00000000
  -V(xc)+E(xc)   XCENC  =       275.14529127
  PAW double counting   =      9566.66788534    -9907.92164445
  entropy T*S    EENTRO =         0.00000000
  eigenvalues    EBANDS =      -797.89993432
  atomic energy  EATOM  =     11046.36508586
  Solvation  Ediel_sol  =         0.00000000
  ---------------------------------------------------
  free energy    TOTEN  =       -64.15307708 eV

  energy without entropy =      -64.15307708  energy(sigma->0) =      -64.15307708


--------------------------------------------------------------------------------------------------------




--------------------------------------- Iteration      1(   8)  ---------------------------------------


    POTLOK:  cpu time      0.0140: real time      0.0150
    SETDIJ:  cpu time      1.9444: real time      1.9456
     EDDAV:  cpu time      3.3224: real time      3.3243
 BZINTS: Fermi energy:    2.293612;  114.000000 electrons
         Band energy:-0.812089E+03;  BLOECHL correction:   -0.000000
       DOS:  cpu time      0.0235: real time      0.0235
    CHARGE:  cpu time      0.1595: real time      0.1596
    MIXING:  cpu time      0.0061: real time      0.0061
    --------------------------------------------
      LOOP:  cpu time      5.4697: real time      5.4740

 eigenvalue-minimisations  :  6560
 total energy-change (2. order) :-0.9888767E+00  (-0.5794757E+00)
 number of electron     113.9999989 magnetization      15.0628466
 augmentation part       11.1836689 magnetization      14.0479269

 Broyden mixing:
  rms(total) = 0.18601E+01    rms(broyden)= 0.18601E+01
  rms(prec ) = 0.19190E+01
  weight for this iteration     100.00

 eigenvalues of (default mixing * dielectric matrix)
  average eigenvalue GAMMA=   0.6213
  0.1396  0.8621  0.8621

 Free energy of the ion-electron system (eV)
  ---------------------------------------------------
  alpha Z        PSCENC =       513.75853977
  Ewald energy   TEWEN  =     -6532.58387883
  -Hartree energ DENC   =     -4216.37123266
  -exchange      EXHF   =         0.00000000
  -V(xc)+E(xc)   XCENC  =       276.02207466
  PAW double counting   =      9582.87335078    -9923.11650707
  entropy T*S    EENTRO =         0.00000000
  eigenvalues    EBANDS =      -812.08938631
  atomic energy  EATOM  =     11046.36508586
  Solvation  Ediel_sol  =         0.00000000
  ---------------------------------------------------
  free energy    TOTEN  =       -65.14195380 eV

  energy without entropy =      -65.14195380  energy(sigma->0) =      -65.14195380


--------------------------------------------------------------------------------------------------------




--------------------------------------- Iteration      1(   9)  ---------------------------------------


    POTLOK:  cpu time      0.0139: real time      0.0152
    SETDIJ:  cpu time      1.9290: real time      1.9297
     EDDAV:  cpu time      3.3793: real time      3.3807
 BZINTS: Fermi energy:    2.642604;  114.000000 electrons
         Band energy:-0.831730E+03;  BLOECHL correction:   -0.000000
       DOS:  cpu time      0.0233: real time      0.0233
    CHARGE:  cpu time      0.1578: real time      0.1579
    MIXING:  cpu time      0.0065: real time      0.0065
    --------------------------------------------
      LOOP:  cpu time      5.5098: real time      5.5132

 eigenvalue-minimisations  :  6672
 total energy-change (2. order) :-0.9132797E+00  (-0.3564366E+00)
 number of electron     113.9999989 magnetization      14.3959615
 augmentation part       11.3211781 magnetization      13.3143164

 Broyden mixing:
  rms(total) = 0.39959E+00    rms(broyden)= 0.39959E+00
  rms(prec ) = 0.42502E+00
  weight for this iteration     100.00

 eigenvalues of (default mixing * dielectric matrix)
  average eigenvalue GAMMA=   0.8159
  1.7885  0.1400  0.6676  0.6676

 Free energy of the ion-electron system (eV)
  ---------------------------------------------------
  alpha Z        PSCENC =       513.75853977
  Ewald energy   TEWEN  =     -6532.58387883
  -Hartree energ DENC   =     -4198.46579873
  -exchange      EXHF   =         0.00000000
  -V(xc)+E(xc)   XCENC  =       280.49927525
  PAW double counting   =      9853.31711316   -10197.21516815
  entropy T*S    EENTRO =         0.00000000
  eigenvalues    EBANDS =      -831.73040185
  atomic energy  EATOM  =     11046.36508586
  Solvation  Ediel_sol  =         0.00000000
  ---------------------------------------------------
  free energy    TOTEN  =       -66.05523353 eV

  energy without entropy =      -66.05523353  energy(sigma->0) =      -66.05523353


--------------------------------------------------------------------------------------------------------




--------------------------------------- Iteration      1(  10)  ---------------------------------------


    POTLOK:  cpu time      0.0141: real time      0.0150
    SETDIJ:  cpu time      1.9239: real time      1.9244
     EDDAV:  cpu time      3.2053: real time      3.2064
 BZINTS: Fermi energy:    2.759911;  114.000000 electrons
         Band energy:-0.825678E+03;  BLOECHL correction:    0.000000
       DOS:  cpu time      0.0233: real time      0.0233
    CHARGE:  cpu time      0.1577: real time      0.1578
    MIXING:  cpu time      0.0064: real time      0.0064
    --------------------------------------------
      LOOP:  cpu time      5.3307: real time      5.3332

 eigenvalue-minimisations  :  6256
 total energy-change (2. order) :-0.1898907E+00  (-0.1688542E+00)
 number of electron     113.9999989 magnetization      14.3034640
 augmentation part       11.3411394 magnetization      13.2375556

 Broyden mixing:
  rms(total) = 0.41078E+00    rms(broyden)= 0.41078E+00
  rms(prec ) = 0.41795E+00
  weight for this iteration     100.00

 eigenvalues of (default mixing * dielectric matrix)
  average eigenvalue GAMMA=   0.8734
  2.0013  0.1399  0.8170  0.8170  0.5916

 Free energy of the ion-electron system (eV)
  ---------------------------------------------------
  alpha Z        PSCENC =       513.75853977
  Ewald energy   TEWEN  =     -6532.58387883
  -Hartree energ DENC   =     -4195.86444878
  -exchange      EXHF   =         0.00000000
  -V(xc)+E(xc)   XCENC  =       281.72170955
  PAW double counting   =     10009.52986003   -10363.49382684
  entropy T*S    EENTRO =         0.00000000
  eigenvalues    EBANDS =      -825.67816495
  atomic energy  EATOM  =     11046.36508586
  Solvation  Ediel_sol  =         0.00000000
  ---------------------------------------------------
  free energy    TOTEN  =       -66.24512419 eV

  energy without entropy =      -66.24512419  energy(sigma->0) =      -66.24512419


--------------------------------------------------------------------------------------------------------




--------------------------------------- Iteration      1(  11)  ---------------------------------------


    POTLOK:  cpu time      0.0141: real time      0.0151
    SETDIJ:  cpu time      1.9244: real time      1.9251
     EDDAV:  cpu time      3.3483: real time      3.3502
 BZINTS: Fermi energy:    2.755136;  114.000000 electrons
         Band energy:-0.818380E+03;  BLOECHL correction:   -0.000000
       DOS:  cpu time      0.0247: real time      0.0248
    CHARGE:  cpu time      0.1596: real time      0.1597
    MIXING:  cpu time      0.0067: real time      0.0067
    --------------------------------------------
      LOOP:  cpu time      5.4779: real time      5.4815

 eigenvalue-minimisations  :  6616
 total energy-change (2. order) :-0.6028104E-01  (-0.1825485E-01)
 number of electron     113.9999989 magnetization      14.2193068
 augmentation part       11.2413949 magnetization      13.1613765

 Broyden mixing:
  rms(total) = 0.20616E+00    rms(broyden)= 0.20616E+00
  rms(prec ) = 0.23332E+00
  weight for this iteration     100.00

 eigenvalues of (default mixing * dielectric matrix)
  average eigenvalue GAMMA=   0.9532
  2.2679  0.1399  0.9916  0.9916  0.6642  0.6642

 Free energy of the ion-electron system (eV)
  ---------------------------------------------------
  alpha Z        PSCENC =       513.75853977
  Ewald energy   TEWEN  =     -6532.58387883
  -Hartree energ DENC   =     -4198.41447384
  -exchange      EXHF   =         0.00000000
  -V(xc)+E(xc)   XCENC  =       281.16870154
  PAW double counting   =     10064.18144525   -10422.40102240
  entropy T*S    EENTRO =         0.00000000
  eigenvalues    EBANDS =      -818.37980257
  atomic energy  EATOM  =     11046.36508586
  Solvation  Ediel_sol  =         0.00000000
  ---------------------------------------------------
  free energy    TOTEN  =       -66.30540522 eV

  energy without entropy =      -66.30540522  energy(sigma->0) =      -66.30540522


--------------------------------------------------------------------------------------------------------




--------------------------------------- Iteration      1(  12)  ---------------------------------------


    POTLOK:  cpu time      0.0141: real time      0.0154
    SETDIJ:  cpu time      1.9373: real time      1.9382
     EDDAV:  cpu time      3.3081: real time      3.3097
 BZINTS: Fermi energy:    2.752036;  114.000000 electrons
         Band energy:-0.820331E+03;  BLOECHL correction:   -0.000000
       DOS:  cpu time      0.0251: real time      0.0253
    CHARGE:  cpu time      0.1595: real time      0.1597
    MIXING:  cpu time      0.0067: real time      0.0067
    --------------------------------------------
      LOOP:  cpu time      5.4508: real time      5.4550

 eigenvalue-minimisations  :  6480
 total energy-change (2. order) : 0.4845835E-02  (-0.4193492E-02)
 number of electron     113.9999989 magnetization      14.1903536
 augmentation part       11.2506217 magnetization      13.1202451

 Broyden mixing:
  rms(total) = 0.16252E+00    rms(broyden)= 0.16252E+00
  rms(prec ) = 0.18777E+00
  weight for this iteration     100.00

 eigenvalues of (default mixing * dielectric matrix)
  average eigenvalue GAMMA=   0.9352
  2.2507  0.1399  1.0473  1.0473  0.7361  0.7361  0.5888

 Free energy of the ion-electron system (eV)
  ---------------------------------------------------
  alpha Z        PSCENC =       513.75853977
  Ewald energy   TEWEN  =     -6532.58387883
  -Hartree energ DENC   =     -4196.46598815
  -exchange      EXHF   =         0.00000000
  -V(xc)+E(xc)   XCENC  =       281.00875241
  PAW double counting   =     10101.50773401   -10459.56017829
  entropy T*S    EENTRO =         0.00000000
  eigenvalues    EBANDS =      -820.33062617
  atomic energy  EATOM  =     11046.36508586
  Solvation  Ediel_sol  =         0.00000000
  ---------------------------------------------------
  free energy    TOTEN  =       -66.30055939 eV

  energy without entropy =      -66.30055939  energy(sigma->0) =      -66.30055939


--------------------------------------------------------------------------------------------------------




--------------------------------------- Iteration      1(  13)  ---------------------------------------


    POTLOK:  cpu time      0.0141: real time      0.0151
    SETDIJ:  cpu time      1.9306: real time      1.9314
     EDDAV:  cpu time      3.4536: real time      3.4556
 BZINTS: Fermi energy:    2.752939;  114.000000 electrons
         Band energy:-0.822315E+03;  BLOECHL correction:   -0.000000
       DOS:  cpu time      0.0234: real time      0.0234
    CHARGE:  cpu time      0.1593: real time      0.1594
    MIXING:  cpu time      0.0071: real time      0.0071
    --------------------------------------------
      LOOP:  cpu time      5.5882: real time      5.5922

 eigenvalue-minimisations  :  6880
 total energy-change (2. order) : 0.1428491E-01  (-0.8365262E-03)
 number of electron     113.9999989 magnetization      14.1502611
 augmentation part       11.2620647 magnetization      13.0780380

 Broyden mixing:
  rms(total) = 0.11914E+00    rms(broyden)= 0.11914E+00
  rms(prec ) = 0.14308E+00
  weight for this iteration     100.00

 eigenvalues of (default mixing * dielectric matrix)
  average eigenvalue GAMMA=   1.0133
  2.2956  1.5349  0.1399  1.1803  0.8323  0.8323  0.6846  0.6066

 Free energy of the ion-electron system (eV)
  ---------------------------------------------------
  alpha Z        PSCENC =       513.75853977
  Ewald energy   TEWEN  =     -6532.58387883
  -Hartree energ DENC   =     -4194.98763865
  -exchange      EXHF   =         0.00000000
  -V(xc)+E(xc)   XCENC  =       280.84454018
  PAW double counting   =     10105.68433729   -10463.05232682
  entropy T*S    EENTRO =         0.00000000
  eigenvalues    EBANDS =      -822.31493328
  atomic energy  EATOM  =     11046.36508586
  Solvation  Ediel_sol  =         0.00000000
  ---------------------------------------------------
  free energy    TOTEN  =       -66.28627448 eV

  energy without entropy =      -66.28627448  energy(sigma->0) =      -66.28627448


--------------------------------------------------------------------------------------------------------




--------------------------------------- Iteration      1(  14)  ---------------------------------------


    POTLOK:  cpu time      0.0146: real time      0.0152
    SETDIJ:  cpu time      1.9357: real time      1.9367
     EDDAV:  cpu time      3.3958: real time      3.3974
 BZINTS: Fermi energy:    2.755506;  114.000000 electrons
         Band energy:-0.824632E+03;  BLOECHL correction:   -0.000000
       DOS:  cpu time      0.0237: real time      0.0237
    CHARGE:  cpu time      0.1588: real time      0.1589
    MIXING:  cpu time      0.0070: real time      0.0070
    --------------------------------------------
      LOOP:  cpu time      5.5355: real time      5.5389

 eigenvalue-minimisations  :  6712
 total energy-change (2. order) : 0.1416216E-01  (-0.8096827E-03)
 number of electron     113.9999989 magnetization      14.1272235
 augmentation part       11.2811394 magnetization      13.0407832

 Broyden mixing:
  rms(total) = 0.89132E-01    rms(broyden)= 0.89132E-01
  rms(prec ) = 0.10636E+00
  weight for this iteration     100.00

 eigenvalues of (default mixing * dielectric matrix)
  average eigenvalue GAMMA=   0.9773
  2.3720  1.4050  1.4050  0.1399  0.8622  0.8622  0.6298  0.6298  0.4902

 Free energy of the ion-electron system (eV)
  ---------------------------------------------------
  alpha Z        PSCENC =       513.75853977
  Ewald energy   TEWEN  =     -6532.58387883
  -Hartree energ DENC   =     -4193.34286544
  -exchange      EXHF   =         0.00000000
  -V(xc)+E(xc)   XCENC  =       280.72132764
  PAW double counting   =     10106.99493264   -10463.55368032
  entropy T*S    EENTRO =         0.00000000
  eigenvalues    EBANDS =      -824.63157364
  atomic energy  EATOM  =     11046.36508586
  Solvation  Ediel_sol  =         0.00000000
  ---------------------------------------------------
  free energy    TOTEN  =       -66.27211232 eV

  energy without entropy =      -66.27211232  energy(sigma->0) =      -66.27211232


--------------------------------------------------------------------------------------------------------




--------------------------------------- Iteration      1(  15)  ---------------------------------------


    POTLOK:  cpu time      0.0141: real time      0.0151
    SETDIJ:  cpu time      1.9224: real time      1.9232
     EDDAV:  cpu time      3.8083: real time      3.8102
 BZINTS: Fermi energy:    2.756741;  114.000000 electrons
         Band energy:-0.825831E+03;  BLOECHL correction:   -0.000000
       DOS:  cpu time      0.0237: real time      0.0237
    CHARGE:  cpu time      0.1591: real time      0.1593
    MIXING:  cpu time      0.0073: real time      0.0073
    --------------------------------------------
      LOOP:  cpu time      5.9349: real time      5.9388

 eigenvalue-minimisations  :  7712
 total energy-change (2. order) : 0.5562938E-02  (-0.4631146E-03)
 number of electron     113.9999989 magnetization      14.1078952
 augmentation part       11.2890679 magnetization      13.0188764

 Broyden mixing:
  rms(total) = 0.73210E-01    rms(broyden)= 0.73210E-01
  rms(prec ) = 0.86087E-01
  weight for this iteration     100.00

 eigenvalues of (default mixing * dielectric matrix)
  average eigenvalue GAMMA=   1.0103
  2.2668  1.6090  0.1399  1.1122  1.1122  1.0227  0.7695  0.7695  0.6120  0.6889

 Free energy of the ion-electron system (eV)
  ---------------------------------------------------
  alpha Z        PSCENC =       513.75853977
  Ewald energy   TEWEN  =     -6532.58387883
  -Hartree energ DENC   =     -4192.56198353
  -exchange      EXHF   =         0.00000000
  -V(xc)+E(xc)   XCENC  =       280.65425680
  PAW double counting   =     10105.05537739   -10461.12285028
  entropy T*S    EENTRO =         0.00000000
  eigenvalues    EBANDS =      -825.83109657
  atomic energy  EATOM  =     11046.36508586
  Solvation  Ediel_sol  =         0.00000000
  ---------------------------------------------------
  free energy    TOTEN  =       -66.26654938 eV

  energy without entropy =      -66.26654938  energy(sigma->0) =      -66.26654938


--------------------------------------------------------------------------------------------------------




--------------------------------------- Iteration      1(  16)  ---------------------------------------


    POTLOK:  cpu time      0.0144: real time      0.0156
    SETDIJ:  cpu time      1.9193: real time      1.9201
     EDDAV:  cpu time      3.4137: real time      3.4151
 BZINTS: Fermi energy:    2.756681;  114.000000 electrons
         Band energy:-0.826866E+03;  BLOECHL correction:   -0.000000
       DOS:  cpu time      0.0232: real time      0.0232
    CHARGE:  cpu time      0.1594: real time      0.1595
    MIXING:  cpu time      0.0074: real time      0.0074
    --------------------------------------------
      LOOP:  cpu time      5.5375: real time      5.5409

 eigenvalue-minimisations  :  6744
 total energy-change (2. order) : 0.3548190E-02  (-0.1614180E-03)
 number of electron     113.9999989 magnetization      14.0485522
 augmentation part       11.2972002 magnetization      12.9537905

 Broyden mixing:
  rms(total) = 0.56370E-01    rms(broyden)= 0.56370E-01
  rms(prec ) = 0.67133E-01
  weight for this iteration     100.00

 eigenvalues of (default mixing * dielectric matrix)
  average eigenvalue GAMMA=   1.2011
  2.4810  2.4810  2.2711  0.1399  1.2074  1.2074  0.8096  0.8096  0.6734  0.6070
  0.5248

 Free energy of the ion-electron system (eV)
  ---------------------------------------------------
  alpha Z        PSCENC =       513.75853977
  Ewald energy   TEWEN  =     -6532.58387883
[...]
  209        strkin                                0.001152                            1   3
  210          m_sumb_d                              0.000009                          1   4
  211        strelo                                0.004080                            1   3
  212          m_sumb_d                              0.000130                          2   4
  213        strnlr                                1.679711                            1   3
  214          rspher_all                            0.201097                          9   4
  215          phaser                                0.625932                        126   4
  216          rpro_isp                              0.837885                        126   4
  217            fftwav_mpi                            0.168932                     5040   5
  218              fftwav                                0.162584                   5040   6
  219                fft3d                                 0.033821                 5040   7
  220            rpromu_acc                            0.352307                     1260   5
  221          m_sumb_d                              0.010615                          1   4
  222        fft3d_mpi                             0.004775                           22   3
  223          fftbrc_mpi                            0.003834                         22   4
  224            fftbas_plan_mpi                       0.003822                       22   5
  225              map_forward                           0.001369                     20   6
  226                map_gather                            0.000271                   10   7
  227                m_alltoallv_z                         0.000145                   10   7
  228                map_scatter                           0.000776                   10   7
  229              map_backward                          0.001842                     24   6
  230                map_gather                            0.000352                   12   7
  231                m_alltoallv_z                         0.000150                   12   7
  232                map_scatter                           0.001055                   12   7
  233        m_sumb_d                              0.000031                            5   3
  234        forhar                                0.006841                            2   3
  235          m_sumb_d                              0.000048                          2   4
  236        strehar                               0.003357                            1   3
  237          m_sumb_d                              0.000004                          1   4
  238        chggra                                0.001231                            1   3
  239          fft3d_mpi                             0.000817                          3   4
  240            fftbrc_mpi                            0.000566                        3   5
  241              fftbas_plan_mpi                       0.000565                      3   6
  242                map_forward                           0.000332                    4   7
  243                  map_gather                            0.000054                  2   8
  244                  m_alltoallv_z                         0.000040                  2   8
  245                  map_scatter                           0.000201                  2   8
  246                map_backward                          0.000137                    2   7
  247                  map_gather                            0.000029                  1   8
  248                  m_alltoallv_z                         0.000015                  1   8
  249                  map_scatter                           0.000069                  1   8
  250          m_sumb_d                              0.000012                          2   4
  251          pothar                                0.000096                          1   4
  252            m_sumb_d                              0.000009                        1   5
  253        brmix                                 0.009835                            1   3
  254          m_sumb_d                              0.000051                          6   4
  255          brpre                                 0.000056                          2   4
  256          setg0                                 0.003574                          1   4
  257          broyd                                 0.003083                          1   4
  258            m_sumb_d                              0.000352                       22   5
  259            brsav                                 0.000218                       21   5
  260            brget                                 0.000853                       84   5
  261        m_bcast_d                             0.000034                            2   3
  262      potlok                                0.082849                              2   2
  263        fft3d_mpi                             0.053510                           36   3
  264          fftbrc_mpi                            0.041098                         36   4
  265            fftbas_plan_mpi                       0.041075                       36   5
  266              map_forward                           0.011641                     40   6
  267                map_gather                            0.003210                   24   7
  268                m_alltoallv_z                         0.004994                   24   7
  269                map_scatter                           0.003208                   24   7
  270              map_backward                          0.010193                     32   6
  271                map_gather                            0.002730                   16   7
  272                m_alltoallv_z                         0.003687                   16   7
  273                map_scatter                           0.003483                   16   7
  274              dfftw_execute                         0.017816                     30   6
  275        m_sumb_d                              0.000044                            5   3
  276        pothar                                0.003377                            2   3
  277          m_sumb_d                              0.000289                          2   4
  278        m_bcast_d                             0.005658                            4   3
  279      potlok_metagga                        0.000000                              1   2
  280      set_dd_magatom                        0.000004                              1   2
  281      set_dd_paw                            1.931179                              1   2
  282        m_sumb_d                              0.000212                            7   3
  283      augmentation_charge                   0.030948                              1   2
  284        fft3d_mpi                             0.009941                            2   3
  285          fftbrc_mpi                            0.007963                          2   4
  286            fftbas_plan_mpi                       0.007960                        2   5
  287              dfftw_execute                         0.003999                      6   6
  288              map_backward                          0.003776                      4   6
  289                map_gather                            0.001042                    2   7
  290                m_alltoallv_z                         0.001720                    2   7
  291                map_scatter                           0.001010                    2   7
  292      densta                                1.751994                              1   2
 
 Flat profile
 ============
 
             routine name                   CPU           calls
 ---------------------------------------------------------------
 set_dd_paw                             34.335146          18
 raccmu_                                17.074419       21630
 total_time                             15.566584           1
 init_acc                               12.115461           1
 eddav                                  11.739577          20
 lapack                                 10.146295       21630
 m_sumb_d                                6.270476       68223
 redis_pw                                5.337044      119756
 phaser                                  3.609926         742
 acc_init_cublas                         2.440228           1
 densta                                  2.374697          21
 m_alltoall_d                            2.280167      316820
 eccp                                    1.301996       11200
 redis_proj                              1.009159      151844
 fft3d                                   0.977467      132414
 rpromu_acc                              0.943636       17850
 fftwav                                  0.920927       89154
 orth1                                   0.890574       64974
 setdij_                                 0.848574          44
 hamiltmu                                0.805386       21630
 acc_init_cusolver                       0.787115           1
 m_bcast_z                               0.695039       23870
 racc0mu_acc                             0.636525       21630
 w1_copy                                 0.633139      129780
 overl                                   0.619481       75348
 fft3d_mpi                               0.467288       43819
 soft_charge                             0.445400          16
 rpro_isp                                0.438755         182
 setup_precond                           0.410001       11200
 m_bcast_d                               0.382297       43301
 set_charge                              0.373910          16
 augmentation_charge                     0.357600          17
 overl_mu                                0.341880       21630
 rspher_all                              0.298703          14
 ggemm                                   0.286500       27230
 m_alltoallv_z                           0.256983         627
 pw_charge                               0.253894        6554
 newband                                 0.205866       22190
 vhamil                                  0.198279       43260
 kinhamil                                0.194144       43260
 fftext_mpi                              0.184253       43260
 apply_precond                           0.174981       32060
 potlok                                  0.165578          18
 acc_cufft_makeplan                      0.159773          19
 depsum                                  0.148505          16
 dfftw_execute                           0.135611         276
 fftwav_mpi                              0.119660       89154
 sphpro_fast                             0.071710           2
 map_scatter                             0.071572         627
 elmin                                   0.069923           1
 proall                                  0.058339           1
 map_gather                              0.057479         627
 brmix                                   0.046349          16
 setg0                                   0.041916          18
 fftbas_plan_mpi                         0.024416         559
 lincom                                  0.024026         588
 force_and_stress                        0.020701           1
 orthch                                  0.020240           1
 broyd                                   0.018004          16
 w1_projall                              0.016165       16030
 stufak                                  0.014874           1
 choleski                                0.008359          28
 brget                                   0.007438         738
 forhar                                  0.006793           2
 map_backward                            0.005295         586
 pothar                                  0.004671          19
 truncate_high_frequency_w1              0.004662       54460
 inisym                                  0.004382           1
 strnlr                                  0.004183           1
 map_forward                             0.004009         532
 strelo                                  0.003950           1
 forloc                                  0.003441           1
 strehar                                 0.003353           1
 fft_gq                                  0.002861          16
 brsav                                   0.002067         203
 fornlr                                  0.001483           1
 strkin                                  0.001143           1
 brpre                                   0.000958          32
 brgrid                                  0.000440           1
 fewald                                  0.000330           1
 fftbrc_mpi                              0.000321         559
 chggra                                  0.000305           1
 rsp                                     0.000299           1
 vectorpot                               0.000104          17
 set_dd_magatom                          0.000070          18
 fordep                                  0.000054           1
 crpa_reader                             0.000025           1
 posmap                                  0.000024           2
 rcp                                     0.000019           1
 acc_cufft_makeplans                     0.000014           3
 rotate_active_occupied_orbital          0.000000           1
 redis_pw_over_bands                     0.000000           1
 potlok_metagga                          0.000000          17
 ---------------------------------------------------------------
  summed up times     140.9856629371643     
 
 Accumulative profile
 ====================
 
             routine name                   CPU           calls
 ---------------------------------------------------------------
 total_time                            140.985663           1
 elmin                                 100.179215           1
 eddav                                  65.671273          20
 set_dd_paw                             34.396040          18
 hamiltmu                               19.755485       21630
 raccmu_                                18.052824       21630
 init_acc                               12.115461           1
 lapack                                 10.146295       21630
 redis_pw                                6.421513      119756
 m_sumb_d                                6.270476       68223
 force_and_stress                        4.845551           1
 phaser                                  3.609926         742
 newband                                 2.801677       22190
 set_charge                              2.536694          16
 acc_init_cublas                         2.440228           1
 densta                                  2.374697          21
 m_alltoall_d                            2.280167      316820
 redis_proj                              2.204857      151844
 fftwav_mpi                              1.709974       89154
 strnlr                                  1.679711           1
 fftwav                                  1.590313       89154
 soft_charge                             1.432497          16
 fft3d_mpi                               1.331056       43819
 eccp                                    1.301996       11200
 rpro_isp                                1.147174         182
 fft3d                                   0.977467      132414
 rpromu_acc                              0.943636       17850
 orth1                                   0.890574       64974
 setdij_                                 0.856738          44
 acc_init_cusolver                       0.787115           1
 kinhamil                                0.698996       43260
 m_bcast_z                               0.695039       23870
 racc0mu_acc                             0.636525       21630
 w1_copy                                 0.633139      129780
 overl                                   0.619481       75348
 fornlr                                  0.557945           1
 fftbrc_mpi                              0.555686         559
 fftbas_plan_mpi                         0.555366         559
 augmentation_charge                     0.532662          17
 fftext_mpi                              0.504852       43260
 potlok                                  0.499371          18
 w1_projall                              0.485816       16030
 fft_gq                                  0.418600          16
 setup_precond                           0.410001       11200
 m_bcast_d                               0.382297       43301
 overl_mu                                0.341880       21630
 rspher_all                              0.298703          14
 ggemm                                   0.286500       27230
 orthch                                  0.258869           1
 m_alltoallv_z                           0.256983         627
 pw_charge                               0.253894        6554
 map_forward                             0.243556         532
 vhamil                                  0.198279       43260
 apply_precond                           0.174981       32060
 acc_cufft_makeplans                     0.159787           3
 acc_cufft_makeplan                      0.159773          19
 proall                                  0.158371           1
 depsum                                  0.155756          16
 map_backward                            0.151783         586
 dfftw_execute                           0.135611         276
 brmix                                   0.121061          16
 fordep                                  0.113263           1
 sphpro_fast                             0.074191           2
 map_scatter                             0.071572         627
 map_gather                              0.057479         627
 setg0                                   0.041916          18
 broyd                                   0.030545          16
 lincom                                  0.024026         588
 stufak                                  0.014874           1
 choleski                                0.008359          28
 brget                                   0.007438         738
 forhar                                  0.006841           2
 pothar                                  0.005123          19
 truncate_high_frequency_w1              0.004662       54460
 inisym                                  0.004406           1
 strelo                                  0.004080           1
 forloc                                  0.003498           1
 strehar                                 0.003357           1
 brsav                                   0.002067         203
 chggra                                  0.001231           1
 strkin                                  0.001152           1
 brpre                                   0.000958          32
 fewald                                  0.000759           1
 brgrid                                  0.000440           1
 rsp                                     0.000299           1
 vectorpot                               0.000104          17
 set_dd_magatom                          0.000070          18
 crpa_reader                             0.000025           1
 posmap                                  0.000024           2
 rcp                                     0.000019           1
 rotate_active_occupied_orbital          0.000000           1
 redis_pw_over_bands                     0.000000           1
 potlok_metagga                          0.000000          17
 ---------------------------------------------------------------
 
Profiling took   0.272184  0.133896  0.003195  0.003112 seconds
Profiling took   0.163944 seconds
