 vasp.6.3.2 27Jun22 (build Jul  3 2023 11:46:21) complex                         
 executed on    LinuxNV_CrayMPICH date 2024.04.21  00:58:48
 running on    4 total cores
 distrk:  each k-point on    4 cores,    1 groups
 distr:  one band on NCORE=   1 cores,    4 groups


--------------------------------------------------------------------------------------------------------


 INCAR:
   ALGO = Fast
   EDIFF = 0.002
   ENCUT = 520.0
   IBRION = 2
   ICHARG = 1
   ISIF = 3
   ISMEAR = -5
   ISPIN = 2
   KPOINT_BSE = -1 0 0 0
   LDAU = True
   LDAUJ = 0.0 0.0 0.0 0.0 0.0
   LDAUL = 0 0 2 0 0
   LDAUPRINT = 1
   LDAUTYPE = 2
   LDAUU = 0.0 0.0 5.3 0.0 0.0
   LMAXMIX = 6
   LORBIT = 11
   LREAL = Auto
   LWAVE = False
   MAGMOM = 4*0.6 4*7.0 4*5.0 28*0.6
   NELM = 1000
   NSW = 99
   PREC = accurate
   SIGMA = 0.05
   SYSTEM = Pr4eu4fe4cu4o24-mp_bulk_relax

 POTCAR:    PAW_PBE Pr_3 07Sep2000                
 POTCAR:    PAW_PBE Eu 23Dec2003                  
 POTCAR:    PAW_PBE Fe_pv 02Aug2007               
 POTCAR:    PAW_PBE Cu_pv 06Sep2000               
 POTCAR:    PAW_PBE O 08Apr2002                   
 POTCAR:    PAW_PBE Pr_3 07Sep2000                
   SHA256 =  1f34829ef8198f227f69744ad20432c4333a2c57e1e3a92085a7942d0c5410b2 Pr_3/POTCAR           
   COPYR  = (c) Copyright 07Sep2000 Georg Kresse                                                    
   COPYR  = This file is part of the software VASP. Any use, copying, and all other rights are regul
   COPYR  = If you do not have a valid VASP license, you may not use, copy or distribute this file. 
   VRHFIN =Pr : [core=Xe4]                                                                          
   LEXCH  = PE                                                                                      
   EATOM  =   912.8502 eV,   67.0926 Ry                                                             
                                                                                                    
   TITEL  = PAW_PBE Pr_3 07Sep2000                                                                  
   LULTRA =        F    use ultrasoft PP ?                                                          
   IUNSCR =        1    unscreen: 0-lin 1-nonlin 2-no                                               
   RPACOR =    2.400    partial core radius                                                         
   POMASS =  140.907; ZVAL   =   11.000    mass and valenz                                          
   RCORE  =    2.800    outmost cutoff radius                                                       
   RWIGS  =    3.100; RWIGS  =    1.640    wigner-seitz radius (au A)                               
   ENMAX  =  181.719; ENMIN  =  136.289 eV                                                          
   RCLOC  =    2.419    cutoff for local pot                                                        
   LCOR   =        T    correct aug charges                                                         
   LPAW   =        T    paw PP                                                                      
   EAUG   =  303.718                                                                                
   DEXC   =    0.000                                                                                
   RMAX   =    2.867    core radius for proj-oper                                                   
   RAUG   =    1.300    factor for augmentation sphere                                              
   RDEP   =    2.816    radius for radial grids                                                     
   RDEPT  =    2.395    core radius for aug-charge                                                  
                                                                                                    
   Atomic configuration                                                                             
   14 entries                                                                                       
     n  l   j            E        occ.                                                              
     1  0  0.50    -41810.3934   2.0000                                                             
     2  0  0.50     -6731.1418   2.0000                                                             
     2  1  1.50     -6022.4876   6.0000                                                             
     3  0  0.50     -1458.2043   2.0000                                                             
     3  1  1.50     -1233.8862   6.0000                                                             
     3  2  2.50      -919.2566  10.0000                                                             
     4  0  0.50      -295.2681   2.0000                                                             
     4  1  1.50      -221.8430   6.0000                                                             
     4  2  2.50      -116.8418  10.0000                                                             
     4  3  2.50        -6.2311   2.0000                                                             
     5  0  0.50       -42.1589   2.0000                                                             
     6  0  0.50        -3.8068   2.0000                                                             
     5  1  1.50       -23.9655   6.0000                                                             
     5  2  2.50        -3.0008   1.0000                                                             
   Description                                                                                      
     l       E           TYP  RCUT    TYP  RCUT                                                     
     0    -42.1589422     23  2.800                                                                 
     0     -3.8068346     23  2.800                                                                 
     1    -23.9655307     23  2.800                                                                 
     1     13.6058260     23  2.800                                                                 
     2     -3.0008139     23  2.800                                                                 
     2     -0.1733532     23  2.800                                                                 
  local pseudopotential read in
  partial core-charges read in
  partial kinetic energy density read in
  atomic valenz-charges read in
  non local Contribution for L=            0  read in
    real space projection operators read in
  non local Contribution for L=            0  read in
    real space projection operators read in
  non local Contribution for L=            1  read in
    real space projection operators read in
  non local Contribution for L=            1  read in
    real space projection operators read in
  non local Contribution for L=            2  read in
    real space projection operators read in
  non local Contribution for L=            2  read in
    real space projection operators read in
    PAW grid and wavefunctions read in
 
   number of l-projection  operators is LMAX  =            6
   number of lm-projection operators is LMMAX =           18
 
 POTCAR:    PAW_PBE Eu 23Dec2003                  
   SHA256 =  ed303d27e7c5191953f9b15539336e6f36d9037c1d2e92e80c13d733697cb93d Eu/POTCAR             
   COPYR  = (c) Copyright 23Dec2003 Georg Kresse                                                    
   COPYR  = This file is part of the software VASP. Any use, copying, and all other rights are regul
   COPYR  = If you do not have a valid VASP license, you may not use, copy or distribute this file. 
   VRHFIN =Eu : [core=Kr4d]                                                                         
   LEXCH  = PE                                                                                      
   EATOM  =  2619.8085 eV,  192.5505 Ry                                                             
                                                                                                    
   TITEL  = PAW_PBE Eu 23Dec2003                                                                    
   LULTRA =        F    use ultrasoft PP ?                                                          
   IUNSCR =        1    unscreen: 0-lin 1-nonlin 2-no                                               
   RPACOR =    2.300    partial core radius                                                         
   POMASS =  151.965; ZVAL   =   17.000    mass and valenz                                          
   RCORE  =    2.800    outmost cutoff radius                                                       
   RWIGS  =    2.800; RWIGS  =    1.482    wigner-seitz radius (au A)                               
   ENMAX  =  249.668; ENMIN  =  187.251 eV                                                          
   RCLOC  =    2.308    cutoff for local pot                                                        
   LCOR   =        T    correct aug charges                                                         
   LPAW   =        T    paw PP                                                                      
   EAUG   =  549.628                                                                                
   DEXC   =    0.000                                                                                
   RMAX   =    2.870    core radius for proj-oper                                                   
   RAUG   =    1.300    factor for augmentation sphere                                              
   RDEP   =    2.887    radius for radial grids                                                     
   RDEPT  =    2.221    core radius for aug-charge                                                  
                                                                                                    
   Atomic configuration                                                                             
   14 entries                                                                                       
     n  l   j            E        occ.                                                              
     1  0  0.50    -48354.7667   2.0000                                                             
     2  0  0.50     -7939.6472   2.0000                                                             
     2  1  1.50     -7072.6637   6.0000                                                             
     3  0  0.50     -1747.1875   2.0000                                                             
     3  1  1.50     -1477.5221   6.0000                                                             
     3  2  2.50     -1117.4686  10.0000                                                             
     4  0  0.50      -346.8682   2.0000                                                             
     4  1  1.50      -258.1962   6.0000                                                             
     4  2  2.50      -134.7724  10.0000                                                             
     5  0  0.50       -44.6510   2.0000                                                             
     6  0  0.50        -3.6227   2.0000                                                             
     5  1  1.50       -23.7639   6.0000                                                             
     5  2  2.50        -1.3130   0.0000                                                             
     4  3  2.50        -2.7310   7.0000                                                             
   Description                                                                                      
     l       E           TYP  RCUT    TYP  RCUT                                                     
     0    -44.6510453     23  2.400                                                                 
     0     -3.6226685     23  2.400                                                                 
     1    -23.7638687     23  2.400                                                                 
     1     27.2116520     23  2.400                                                                 
     2     -1.3129622     23  2.500                                                                 
     2     13.6058260     23  2.500                                                                 
     3     -2.7309948     23  2.800                                                                 
     3     -3.4014565     23  2.800                                                                 
  local pseudopotential read in
  partial core-charges read in
  partial kinetic energy density read in
  atomic valenz-charges read in
  non local Contribution for L=            0  read in
    real space projection operators read in
  non local Contribution for L=            0  read in
    real space projection operators read in
  non local Contribution for L=            1  read in
    real space projection operators read in
  non local Contribution for L=            1  read in
    real space projection operators read in
  non local Contribution for L=            2  read in
    real space projection operators read in
  non local Contribution for L=            2  read in
    real space projection operators read in
  non local Contribution for L=            3  read in
    real space projection operators read in
  non local Contribution for L=            3  read in
    real space projection operators read in
    PAW grid and wavefunctions read in
 
   number of l-projection  operators is LMAX  =            8
   number of lm-projection operators is LMMAX =           32
 
 POTCAR:    PAW_PBE Fe_pv 02Aug2007               
   SHA256 =  5d22e414b1f82158bf2c7ecb8b97b28fd0923e48cadc1c3bf74d524558f5dd32 Fe_pv/POTCAR          
   COPYR  = (c) Copyright 02Aug2007 Georg Kresse                                                    
   COPYR  = This file is part of the software VASP. Any use, copying, and all other rights are regul
   COPYR  = If you do not have a valid VASP license, you may not use, copy or distribute this file. 
   VRHFIN =Fe:  3pd7s1                                                                              
   LEXCH  = PE                                                                                      
   EATOM  =  2457.4239 eV,  180.6156 Ry                                                             
                                                                                                    
   TITEL  = PAW_PBE Fe_pv 02Aug2007                                                                 
   LULTRA =        F    use ultrasoft PP ?                                                          
   IUNSCR =        1    unscreen: 0-lin 1-nonlin 2-no                                               
   RPACOR =    1.750    partial core radius                                                         
   POMASS =   55.847; ZVAL   =   14.000    mass and valenz                                          
   RCORE  =    2.200    outmost cutoff radius                                                       
   RWIGS  =    2.200; RWIGS  =    1.164    wigner-seitz radius (au A)                               
   ENMAX  =  293.238; ENMIN  =  219.928 eV                                                          
   ICORE  =        3    local potential                                                             
   LCOR   =        T    correct aug charges                                                         
   LPAW   =        T    paw PP                                                                      
   EAUG   =  578.342                                                                                
   DEXC   =    0.000                                                                                
   RMAX   =    2.249    core radius for proj-oper                                                   
   RAUG   =    1.300    factor for augmentation sphere                                              
   RDEP   =    2.296    radius for radial grids                                                     
   RDEPT  =    1.766    core radius for aug-charge                                                  
                                                                                                    
   Atomic configuration                                                                             
    8 entries                                                                                       
     n  l   j            E        occ.                                                              
     1  0  0.50     -6993.8440   2.0000                                                             
     2  0  0.50      -814.6047   2.0000                                                             
     2  1  1.50      -693.3689   6.0000                                                             
     3  0  0.50       -89.4732   2.0000                                                             
     3  1  1.50       -55.6373   6.0000                                                             
     3  2  2.50        -3.8151   7.0000                                                             
     4  0  0.50        -4.2551   1.0000                                                             
     4  3  2.50        -1.3606   0.0000                                                             
   Description                                                                                      
     l       E           TYP  RCUT    TYP  RCUT                                                     
     1    -55.6372668     23  2.000                                                                 
     1     -5.4423304     23  2.000                                                                 
     2     -3.8151096     23  2.200                                                                 
     2     -5.1756922     23  2.200                                                                 
     0     -4.2550951     23  2.200                                                                 
     0     27.2116520     23  2.200                                                                 
     3     -1.3605826     23  2.200                                                                 
  local pseudopotential read in
  partial core-charges read in
  partial kinetic energy density read in
  atomic valenz-charges read in
  non local Contribution for L=            1  read in
    real space projection operators read in
  non local Contribution for L=            1  read in
    real space projection operators read in
  non local Contribution for L=            2  read in
    real space projection operators read in
  non local Contribution for L=            2  read in
    real space projection operators read in
  non local Contribution for L=            0  read in
    real space projection operators read in
  non local Contribution for L=            0  read in
    real space projection operators read in
    PAW grid and wavefunctions read in
 
   number of l-projection  operators is LMAX  =            6
   number of lm-projection operators is LMMAX =           18
 
 POTCAR:    PAW_PBE Cu_pv 06Sep2000               
   SHA256 =  cb7b504e2ea725fe1f25c85a9ac77d4012ce94cd394135b722c4e25ec297f1cb Cu_pv/POTCAR          
   COPYR  = (c) Copyright 06Sep2000 Georg Kresse                                                    
   COPYR  = This file is part of the software VASP. Any use, copying, and all other rights are regul
   COPYR  = If you do not have a valid VASP license, you may not use, copy or distribute this file. 
   VRHFIN =Cu: d10 p1                                                                               
   LEXCH  = PE                                                                                      
   EATOM  =  4120.1201 eV,  302.8203 Ry                                                             
                                                                                                    
   TITEL  = PAW_PBE Cu_pv 06Sep2000                                                                 
   LULTRA =        F    use ultrasoft PP ?                                                          
   IUNSCR =        1    unscreen: 0-lin 1-nonlin 2-no                                               
   RPACOR =    1.500    partial core radius                                                         
   POMASS =   63.546; ZVAL   =   17.000    mass and valenz                                          
   RCORE  =    2.000    outmost cutoff radius                                                       
   RWIGS  =    2.000; RWIGS  =    1.058    wigner-seitz radius (au A)                               
   ENMAX  =  368.648; ENMIN  =  276.486 eV                                                          
   RCLOC  =    1.304    cutoff for local pot                                                        
   LCOR   =        T    correct aug charges                                                         
   LPAW   =        T    paw PP                                                                      
   EAUG   =  758.233                                                                                
   DEXC   =    0.000                                                                                
   RMAX   =    2.046    core radius for proj-oper                                                   
   RAUG   =    1.300    factor for augmentation sphere                                              
   RDEP   =    2.025    radius for radial grids                                                     
   RDEPT  =    1.558    core radius for aug-charge                                                  
                                                                                                    
   Atomic configuration                                                                             
    8 entries                                                                                       
     n  l   j            E        occ.                                                              
     1  0  0.50     -8850.2467   2.0000                                                             
     2  0  0.50     -1062.3498   2.0000                                                             
     2  1  1.50      -916.8226   6.0000                                                             
     3  0  0.50      -114.6929   2.0000                                                             
     3  1  1.50       -72.1325   6.0000                                                             
     3  2  2.50        -5.0394  10.0000                                                             
     4  0  0.50        -4.6097   1.0000                                                             
     4  3  2.50        -1.3606   0.0000                                                             
   Description                                                                                      
     l       E           TYP  RCUT    TYP  RCUT                                                     
     1    -72.1324777     23  1.700                                                                 
     1     -1.3605826     23  1.700                                                                 
     2     -5.0393776     23  2.000                                                                 
     2     -6.3999602     23  2.000                                                                 
     0     -4.6097062     23  1.800                                                                 
     0     14.1620818     23  1.800                                                                 
  local pseudopotential read in
  partial core-charges read in
  partial kinetic energy density read in
  atomic valenz-charges read in
  non local Contribution for L=            1  read in
    real space projection operators read in
  non local Contribution for L=            1  read in
    real space projection operators read in
  non local Contribution for L=            2  read in
    real space projection operators read in
  non local Contribution for L=            2  read in
    real space projection operators read in
  non local Contribution for L=            0  read in
    real space projection operators read in
  non local Contribution for L=            0  read in
    real space projection operators read in
    PAW grid and wavefunctions read in
 
   number of l-projection  operators is LMAX  =            6
   number of lm-projection operators is LMMAX =           18
 
 POTCAR:    PAW_PBE O 08Apr2002                   
   SHA256 =  818f92134a0a090dccd8ba1447fa70422a3b330e708bb4f08108d8ae51209ddf O/POTCAR              
   COPYR  = (c) Copyright 08Apr2002 Georg Kresse                                                    
   COPYR  = This file is part of the software VASP. Any use, copying, and all other rights are regul
   COPYR  = If you do not have a valid VASP license, you may not use, copy or distribute this file. 
   VRHFIN =O: s2p4                                                                                  
   LEXCH  = PE                                                                                      
   EATOM  =   432.3788 eV,   31.7789 Ry                                                             
                                                                                                    
   TITEL  = PAW_PBE O 08Apr2002                                                                     
   LULTRA =        F    use ultrasoft PP ?                                                          
   IUNSCR =        1    unscreen: 0-lin 1-nonlin 2-no                                               
   RPACOR =    1.200    partial core radius                                                         
   POMASS =   16.000; ZVAL   =    6.000    mass and valenz                                          
   RCORE  =    1.520    outmost cutoff radius                                                       
   RWIGS  =    1.550; RWIGS  =    0.820    wigner-seitz radius (au A)                               
   ENMAX  =  400.000; ENMIN  =  300.000 eV                                                          
   ICORE  =        2    local potential                                                             
   LCOR   =        T    correct aug charges                                                         
   LPAW   =        T    paw PP                                                                      
   EAUG   =  605.392                                                                                
   DEXC   =    0.000                                                                                
   RMAX   =    1.553    core radius for proj-oper                                                   
   RAUG   =    1.300    factor for augmentation sphere                                              
   RDEP   =    1.550    radius for radial grids                                                     
   RDEPT  =    1.329    core radius for aug-charge                                                  
                                                                                                    
   Atomic configuration                                                                             
    4 entries                                                                                       
     n  l   j            E        occ.                                                              
     1  0  0.50      -514.6923   2.0000                                                             
     2  0  0.50       -23.9615   2.0000                                                             
     2  1  0.50        -9.0305   4.0000                                                             
     3  2  1.50        -9.5241   0.0000                                                             
   Description                                                                                      
     l       E           TYP  RCUT    TYP  RCUT                                                     
     0    -23.9615318     23  1.200                                                                 
     0     -9.5240782     23  1.200                                                                 
     1     -9.0304911     23  1.520                                                                 
     1      8.1634956     23  1.520                                                                 
     2     -9.5240782      7  1.500                                                                 
  local pseudopotential read in
  partial core-charges read in
  partial kinetic energy density read in
  kinetic energy density of atom read in
  atomic valenz-charges read in
  non local Contribution for L=            0  read in
    real space projection operators read in
  non local Contribution for L=            0  read in
    real space projection operators read in
  non local Contribution for L=            1  read in
    real space projection operators read in
  non local Contribution for L=            1  read in
    real space projection operators read in
    PAW grid and wavefunctions read in
 
   number of l-projection  operators is LMAX  =            4
   number of lm-projection operators is LMMAX =            8
 
 Optimization of the real space projectors (new method)

 maximal supplied QI-value         = 13.42
 optimisation between [QCUT,QGAM] = [ 11.67, 23.35] = [ 38.16,152.62] Ry 
 Optimized for a Real-space Cutoff    1.58 Angstroem

   l    n(q)    QCUT    max X(q) W(low)/X(q) W(high)/X(q)  e(spline) 
   0     11    11.673    13.819    0.14E-04    0.22E-04    0.31E-06
   0     11    11.673     9.993    0.21E-04    0.47E-04    0.65E-06
   1     11    11.673     4.666    0.12E-04    0.19E-04    0.54E-07
   1     11    11.673     4.652    0.24E-03    0.32E-04    0.94E-06
   2     10    11.673    41.448    0.22E-03    0.11E-02    0.17E-05
   2     10    11.673    33.309    0.20E-03    0.10E-02    0.16E-05
 Optimization of the real space projectors (new method)

 maximal supplied QI-value         = 13.42
 optimisation between [QCUT,QGAM] = [ 11.67, 23.35] = [ 38.16,152.62] Ry 
 Optimized for a Real-space Cutoff    1.63 Angstroem

   l    n(q)    QCUT    max X(q) W(low)/X(q) W(high)/X(q)  e(spline) 
   0     11    11.673    10.400    0.14E-04    0.18E-05    0.24E-07
   0     11    11.673    10.768    0.21E-04    0.32E-05    0.49E-07
   1     11    11.673     4.094    0.40E-05    0.13E-04    0.93E-07
   1     11    11.673     4.009    0.11E-04    0.46E-04    0.33E-06
   2     10    11.673    29.030    0.79E-04    0.60E-04    0.70E-06
   2     10    11.673    19.941    0.80E-04    0.60E-04    0.71E-06
   3     10    11.673    88.889    0.23E-03    0.29E-03    0.30E-06
   3     10    11.673    76.102    0.23E-03    0.30E-03    0.30E-06
 Optimization of the real space projectors (new method)

 maximal supplied QI-value         = 17.01
 optimisation between [QCUT,QGAM] = [ 11.57, 23.30] = [ 37.45,152.03] Ry 
 Optimized for a Real-space Cutoff    1.45 Angstroem

   l    n(q)    QCUT    max X(q) W(low)/X(q) W(high)/X(q)  e(spline) 
   1     10    11.565     4.267    0.91E-04    0.15E-03    0.13E-06
   1     10    11.565     5.750    0.14E-03    0.22E-03    0.20E-06
   2      9    11.565    53.656    0.13E-03    0.57E-04    0.16E-06
   2      9    11.565    49.521    0.13E-03    0.59E-04    0.16E-06
   0     10    11.565    31.246    0.61E-04    0.74E-05    0.89E-07
   0     10    11.565    12.201    0.44E-04    0.68E-05    0.74E-07
 Optimization of the real space projectors (new method)

 maximal supplied QI-value         = 18.90
 optimisation between [QCUT,QGAM] = [ 11.53, 23.24] = [ 37.21,151.29] Ry 
 Optimized for a Real-space Cutoff    1.36 Angstroem

   l    n(q)    QCUT    max X(q) W(low)/X(q) W(high)/X(q)  e(spline) 
   1      9    11.527     3.172    0.21E-04    0.38E-04    0.11E-06
   1      9    11.527     4.083    0.67E-04    0.79E-04    0.20E-06
   2      9    11.527    65.342    0.13E-03    0.28E-03    0.26E-06
   2      9    11.527    61.381    0.13E-03    0.29E-03    0.26E-06
   0      9    11.527    65.742    0.32E-04    0.21E-04    0.72E-07
   0      9    11.527    30.431    0.28E-04    0.19E-04    0.65E-07
 Optimization of the real space projectors (new method)

 maximal supplied QI-value         = 24.76
 optimisation between [QCUT,QGAM] = [ 11.64, 23.27] = [ 37.91,151.63] Ry 
 Optimized for a Real-space Cutoff    1.14 Angstroem

   l    n(q)    QCUT    max X(q) W(low)/X(q) W(high)/X(q)  e(spline) 
   0      8    11.635    20.381    0.10E-03    0.33E-03    0.24E-06
   0      8    11.635    15.268    0.11E-03    0.35E-03    0.26E-06
   1      7    11.635     5.964    0.24E-03    0.31E-03    0.30E-06
   1      7    11.635     5.382    0.22E-03    0.25E-03    0.26E-06
  PAW_PBE Pr_3 07Sep2000                :
 energy of atom  1       EATOM= -912.8502
 kinetic energy error for atom=    0.0006 (will be added to EATOM!!)
  PAW_PBE Eu 23Dec2003                  :
 energy of atom  2       EATOM=-2619.8085
 kinetic energy error for atom=    0.0015 (will be added to EATOM!!)
  PAW_PBE Fe_pv 02Aug2007               :
 energy of atom  3       EATOM=-2457.4239
 kinetic energy error for atom=    0.0062 (will be added to EATOM!!)
  PAW_PBE Cu_pv 06Sep2000               :
 energy of atom  4       EATOM=-4120.1201
 kinetic energy error for atom=    0.0541 (will be added to EATOM!!)
  PAW_PBE O 08Apr2002                   :
 energy of atom  5       EATOM= -432.3788
 kinetic energy error for atom=    0.0208 (will be added to EATOM!!)
 
 
 POSCAR: Pr4 Eu4 Fe4 Cu4 O24
  positions in direct lattice
  No initial velocities read in
 exchange correlation table for  LEXCH =        8
   RHO(1)=    0.500       N(1)  =     2000
   RHO(2)=  100.500       N(2)  =     4000

 VTST: version 4.2, (08/11/21)

 CHAIN: initializing optimizer
 
 OPT: Using VASP Conjugate-Gradient optimizer
 CHAIN: Read ICHAIN             0
 
 POSCAR: Pr4 Eu4 Fe4 Cu4 O24
  positions in direct lattice
  No initial velocities read in
 


--------------------------------------------------------------------------------------------------------


 ion  position               nearest neighbor table
   1  0.500  0.000  0.500-  37 2.68  38 2.68  39 2.68  40 2.68
   2  0.500  0.500  0.000-  29 2.69  30 2.69  31 2.69  32 2.69
   3  0.000  0.500  0.000-  25 2.68  26 2.68  27 2.68  28 2.68
   4  0.000  0.000  0.500-  17 2.69  18 2.69  19 2.69  20 2.69
   5  0.000  0.500  0.500-  33 2.69  34 2.69  35 2.69  36 2.69
   6  0.500  0.000  0.000-  21 2.69  22 2.69  23 2.69  24 2.69
   7  0.000  0.000  0.000-
   8  0.500  0.500  0.500-
   9  0.250  0.250  0.250-
  10  0.750  0.750  0.250-
  11  0.750  0.250  0.750-
  12  0.250  0.750  0.750-
  13  0.750  0.750  0.750-  24 2.03  36 2.03  28 2.03  40 2.03  20 2.03  32 2.03
  14  0.250  0.250  0.750-  22 2.03  34 2.03  25 2.03  37 2.03  19 2.03  31 2.03
  15  0.250  0.750  0.250-  21 2.03  33 2.03  27 2.03  39 2.03  18 2.03  30 2.03
  16  0.750  0.250  0.250-  23 2.03  35 2.03  26 2.03  38 2.03  17 2.03  29 2.03
  17  0.968  0.206  0.288-  16 2.03   4 2.69
  18  0.032  0.794  0.288-  15 2.03   4 2.69
  19  0.032  0.206  0.712-  14 2.03   4 2.69
  20  0.968  0.794  0.712-  13 2.03   4 2.69
  21  0.290  0.967  0.208-  15 2.03   6 2.69
  22  0.290  0.033  0.792-  14 2.03   6 2.69
  23  0.710  0.033  0.208-  16 2.03   6 2.69
  24  0.710  0.967  0.792-  13 2.03   6 2.69
  25  0.207  0.291  0.967-  14 2.03   3 2.68
  26  0.793  0.291  0.033-  16 2.03   3 2.68
  27  0.207  0.709  0.033-  15 2.03   3 2.68
  28  0.793  0.709  0.967-  13 2.03   3 2.68
  29  0.532  0.294  0.212-  16 2.03   2 2.69
  30  0.468  0.706  0.212-  15 2.03   2 2.69
  31  0.468  0.294  0.788-  14 2.03   2 2.69
  32  0.532  0.706  0.788-  13 2.03   2 2.69
  33  0.210  0.533  0.292-  15 2.03   5 2.69
  34  0.210  0.467  0.708-  14 2.03   5 2.69
  35  0.790  0.467  0.292-  16 2.03   5 2.69
  36  0.790  0.533  0.708-  13 2.03   5 2.69
  37  0.293  0.209  0.533-  14 2.03   1 2.68
  38  0.707  0.209  0.467-  16 2.03   1 2.68
  39  0.293  0.791  0.467-  15 2.03   1 2.68
  40  0.707  0.791  0.533-  13 2.03   1 2.68
 
  LATTYP: Found a simple orthorhombic cell.
 ALAT       =     9.0133661400
 B/A-ratio  =     1.0006511951
 C/A-ratio  =     1.0035889977
  
  Lattice vectors:
  
 A1 = (  -9.0133661400,   0.0000000000,   0.0000000000)
 A2 = (   0.0000000000,   0.0000000000,   9.0192356000)
 A3 = (   0.0000000000,   9.0457150900,   0.0000000000)


Analysis of symmetry for initial positions (statically):
=====================================================================
 Subroutine PRICEL returns:
 Original cell was already a primitive cell.
 

 Routine SETGRP: Setting up the symmetry group for a 
 simple orthorhombic supercell.


 Subroutine GETGRP returns: Found  8 space group operations
 (whereof  4 operations were pure point group operations)
 out of a pool of  8 trial point group operations.


The static configuration has the point symmetry D_2 .
 The point group associated with its full space group is D_2h.


Analysis of symmetry for dynamics (positions and initial velocities):
=====================================================================
 Subroutine PRICEL returns:
 Original cell was already a primitive cell.
 

 Routine SETGRP: Setting up the symmetry group for a 
 simple orthorhombic supercell.


 Subroutine GETGRP returns: Found  8 space group operations
 (whereof  4 operations were pure point group operations)
 out of a pool of  8 trial point group operations.


The dynamic configuration has the point symmetry D_2 .
 The point group associated with its full space group is D_2h.


Analysis of structural, dynamic, and magnetic symmetry:
=====================================================================
 Subroutine PRICEL returns:
 Original cell was already a primitive cell.
 

 Routine SETGRP: Setting up the symmetry group for a 
 simple orthorhombic supercell.


 Subroutine GETGRP returns: Found  8 space group operations
 (whereof  4 operations were pure point group operations)
 out of a pool of  8 trial point group operations.


The overall configuration has the point symmetry D_2 .
 The point group associated with its full space group is D_2h.


 Subroutine INISYM returns: Found  8 space group operations
 (whereof  4 operations are pure point group operations),
 and found     1 'primitive' translations


----------------------------------------------------------------------------------------

                                     Primitive cell                                     

  volume of cell :     735.3594

  direct lattice vectors                    reciprocal lattice vectors
     9.013366140  0.000000000  0.000000000     0.110946342  0.000000000  0.000000000
     0.000000000  9.045715090  0.000000000     0.000000000  0.110549580  0.000000000
     0.000000000  0.000000000  9.019235600     0.000000000  0.000000000  0.110874141

  length of vectors
     9.013366140  9.045715090  9.019235600     0.110946342  0.110549580  0.110874141

  position of ions in fractional coordinates (direct lattice)
     0.500000000  0.000000000  0.500000000
     0.500000000  0.500000000  0.000000000
     0.000000000  0.500000000  0.000000000
     0.000000000  0.000000000  0.500000000
     0.000000000  0.500000000  0.500000000
     0.500000000  0.000000000  0.000000000
     0.000000000  0.000000000  0.000000000
     0.500000000  0.500000000  0.500000000
     0.250000000  0.250000000  0.250000000
     0.750000000  0.750000000  0.250000000
     0.750000000  0.250000000  0.750000000
     0.250000000  0.750000000  0.750000000
     0.750000000  0.750000000  0.750000000
     0.250000000  0.250000000  0.750000000
     0.250000000  0.750000000  0.250000000
     0.750000000  0.250000000  0.250000000
     0.967716500  0.206186760  0.287683500
     0.032283500  0.793813240  0.287683500
     0.032283500  0.206186760  0.712316500
     0.967716500  0.793813240  0.712316500
     0.289607560  0.966511480  0.208066560
     0.289607560  0.033488520  0.791933440
     0.710392440  0.033488520  0.208066560
     0.710392440  0.966511480  0.791933440
     0.207323500  0.290648960  0.966852680
     0.792676500  0.290648960  0.033147320
     0.207323500  0.709351040  0.033147320
     0.792676500  0.709351040  0.966852680
     0.532283500  0.293813240  0.212316500
     0.467716500  0.706186760  0.212316500
     0.467716500  0.293813240  0.787683500
     0.532283500  0.706186760  0.787683500
     0.210392440  0.533488520  0.291933440
     0.210392440  0.466511480  0.708066560
     0.789607560  0.466511480  0.291933440
     0.789607560  0.533488520  0.708066560
     0.292676500  0.209351040  0.533147320
     0.707323500  0.209351040  0.466852680
     0.292676500  0.790648960  0.466852680
     0.707323500  0.790648960  0.533147320

  ion indices of the primitive-cell ions
   primitive index   ion index
                 1           1
                 2           2
                 3           3
                 4           4
                 5           5
                 6           6
                 7           7
                 8           8
                 9           9
                10          10
                11          11
                12          12
                13          13
                14          14
                15          15
                16          16
                17          17
                18          18
                19          19
                20          20
                21          21
                22          22
                23          23
                24          24
                25          25
                26          26
                27          27
                28          28
                29          29
                30          30
                31          31
                32          32
                33          33
                34          34
                35          35
                36          36
                37          37
                38          38
                39          39
                40          40

----------------------------------------------------------------------------------------

 
 
 KPOINTS: Kpoints from vasprun.xml                

Automatic generation of k-mesh.
 Grid dimensions read from file:
 generate k-points for:    2    2    2

 Generating k-lattice:

  Cartesian coordinates                     Fractional coordinates (reciprocal lattice)
     0.055473171  0.000000000  0.000000000     0.500000000  0.000000000  0.000000000
     0.000000000  0.055274790  0.000000000     0.000000000  0.500000000  0.000000000
     0.000000000  0.000000000  0.055437071     0.000000000  0.000000000  0.500000000

  Length of vectors
     0.055473171  0.055274790  0.055437071

  Shift w.r.t. Gamma in fractional coordinates (k-lattice)
     0.000000000  0.000000000  0.000000000

 TETIRR: Found     24 inequivalent tetrahedra from       48
 
 Subroutine IBZKPT returns following result:
 ===========================================
 
 Found      8 irreducible k-points:
 
 Following reciprocal coordinates:
            Coordinates               Weight
  0.000000  0.000000  0.000000      1.000000
  0.500000  0.000000  0.000000      1.000000
  0.000000  0.500000  0.000000      1.000000
  0.500000  0.500000  0.000000      1.000000
  0.000000  0.000000  0.500000      1.000000
  0.500000  0.000000  0.500000      1.000000
  0.000000  0.500000  0.500000      1.000000
  0.500000  0.500000  0.500000      1.000000
 
 Following cartesian coordinates:
            Coordinates               Weight
  0.000000  0.000000  0.000000      1.000000
  0.055473  0.000000  0.000000      1.000000
  0.000000  0.055275  0.000000      1.000000
  0.055473  0.055275  0.000000      1.000000
  0.000000  0.000000  0.055437      1.000000
  0.055473  0.000000  0.055437      1.000000
  0.000000  0.055275  0.055437      1.000000
  0.055473  0.055275  0.055437      1.000000
 


--------------------------------------------------------------------------------------------------------




 Dimension of arrays:
   k-points           NKPTS =      8   k-points in BZ     NKDIM =      8   number of bands    NBANDS=    264
   number of dos      NEDOS =    301   number of ions     NIONS =     40
   non local maximal  LDIM  =      8   non local SUM 2l+1 LMDIM =     32
   total plane-waves  NPLWV = 343000
   max r-space proj   IRMAX =   8468   max aug-charges    IRDMAX=  36495
   dimension x,y,z NGX =    70 NGY =   70 NGZ =   70
   dimension x,y,z NGXF=   140 NGYF=  140 NGZF=  140
   support grid    NGXF=   140 NGYF=  140 NGZF=  140
   ions per type =               4   4   4   4  24
   NGX,Y,Z   is equivalent  to a cutoff of  12.91, 12.86, 12.90 a.u.
   NGXF,Y,Z  is equivalent  to a cutoff of  25.82, 25.73, 25.81 a.u.

 SYSTEM =  Pr4eu4fe4cu4o24-mp_bulk_relax           
 POSCAR =  Pr4 Eu4 Fe4 Cu4 O24                     

 Startparameter for this run:
   NWRITE =      2    write-flag & timer
   PREC   = accura    normal or accurate (medium, high low for compatibility)
   ISTART =      0    job   : 0-new  1-cont  2-samecut
   ICHARG =      1    charge: 1-file 2-atom 10-const
   ISPIN  =      2    spin polarized calculation?
   LNONCOLLINEAR =      F non collinear calculations
   LSORBIT =      F    spin-orbit coupling
   INIWAV =      1    electr: 0-lowe 1-rand  2-diag
   LASPH  =      F    aspherical Exc in radial PAW
 Electronic Relaxation 1
   ENCUT  =  520.0 eV  38.22 Ry    6.18 a.u.  16.76 16.82 16.77*2*pi/ulx,y,z
   ENINI  =  520.0     initial cutoff
   ENAUG  =  758.2 eV  augmentation charge cutoff
   NELM   =   1000;   NELMIN=  2; NELMDL= -5     # of ELM steps 
   EDIFF  = 0.2E-02   stopping-criterion for ELM
   LREAL  =      T    real-space projection
   NLSPLINE    = F    spline interpolate recip. space projectors
   LCOMPAT=      F    compatible to vasp.4.4
   GGA_COMPAT  = T    GGA compatible to vasp.4.4-vasp.4.6
   LMAXPAW     = -100 max onsite density
   LMAXMIX     =    6 max onsite mixed and CHGCAR
   VOSKOWN=      0    Vosko Wilk Nusair interpolation
   ROPT   =   -0.00025  -0.00025  -0.00025  -0.00025
   ROPT   =   -0.00025
 Ionic relaxation
   EDIFFG = 0.2E-01   stopping-criterion for IOM
   NSW    =     99    number of steps for IOM
   NBLOCK =      1;   KBLOCK =     99    inner block; outer block 
   IBRION =      2    ionic relax: 0-MD 1-quasi-New 2-CG
   NFREE  =      1    steps in history (QN), initial steepest desc. (CG)
   ISIF   =      3    stress and relaxation
   IWAVPR =     11    prediction:  0-non 1-charg 2-wave 3-comb
   ISYM   =      2    0-nonsym 1-usesym 2-fastsym
   LCORR  =      T    Harris-Foulkes like correction to forces

   POTIM  = 0.5000    time-step for ionic-motion
   TEIN   =    0.0    initial temperature
   TEBEG  =    0.0;   TEEND  =   0.0 temperature during run
   SMASS  =  -3.00    Nose mass-parameter (am)
   estimated Nose-frequenzy (Omega)   =  0.10E-29 period in steps = 0.13E+47 mass=  -0.186E-26a.u.
   SCALEE = 1.0000    scale energy and forces
   NPACO  =    256;   APACO  = 10.0  distance and # of slots for P.C.
   PSTRESS=    0.0 pullay stress

  Mass of Ions in am
   POMASS = 140.91151.97 55.85 63.55 16.00
  Ionic Valenz
   ZVAL   =  11.00 17.00 14.00 17.00  6.00
  Atomic Wigner-Seitz radii
   RWIGS  =  -1.00 -1.00 -1.00 -1.00 -1.00
  virtual crystal weights 
   VCA    =   1.00  1.00  1.00  1.00  1.00
   NELECT =     380.0000    total number of electrons
   NUPDOWN=      -1.0000    fix difference up-down

 DOS related values:
   EMIN   =  10.00;   EMAX   =-10.00  energy-range for DOS
   EFERMI =   0.00
   ISMEAR =    -5;   SIGMA  =   0.05  broadening in eV -4-tet -1-fermi 0-gaus

 Electronic relaxation 2 (details)
   IALGO  =     68    algorithm
   LDIAG  =      T    sub-space diagonalisation (order eigenvalues)
   LSUBROT=      F    optimize rotation matrix (better conditioning)
   TURBO    =      0    0=normal 1=particle mesh
   IRESTART =      0    0=no restart 2=restart with 2 vectors
   NREBOOT  =      0    no. of reboots
   NMIN     =      0    reboot dimension
   EREF     =   0.00    reference energy to select bands
   IMIX   =      4    mixing-type and parameters
     AMIX     =   0.40;   BMIX     =  1.00
     AMIX_MAG =   1.60;   BMIX_MAG =  1.00
     AMIN     =   0.10
     WC   =   100.;   INIMIX=   1;  MIXPRE=   1;  MAXMIX= -45

 Intra band minimization:
   WEIMIN = 0.0010     energy-eigenvalue tresh-hold
   EBREAK =  0.19E-05  absolut break condition
   DEPER  =   0.30     relativ break condition  

   TIME   =   0.40     timestep for ELM

  volume/ion in A,a.u.               =      18.38       124.06
  Fermi-wavevector in a.u.,A,eV,Ry     =   1.313720  2.482571 23.481754  1.725860
  Thomas-Fermi vector in A             =   2.444023
 
 Write flags
   LWAVE        =      F    write WAVECAR
   LDOWNSAMPLE  =      F    k-point downsampling of WAVECAR
   LCHARG       =      T    write CHGCAR
   LVTOT        =      F    write LOCPOT, total local potential
   LVHAR        =      F    write LOCPOT, Hartree potential only
   LELF         =      F    write electronic localiz. function (ELF)
   LORBIT       =     11    0 simple, 1 ext, 2 COOP (PROOUT), +10 PAW based schemes


 Dipole corrections
   LMONO  =      F    monopole corrections only (constant potential shift)
   LDIPOL =      F    correct potential (dipole corrections)
   IDIPOL =      0    1-x, 2-y, 3-z, 4-all directions 
   EPSILON=  1.0000000 bulk dielectric constant

 LDA+U is selected, type is set to LDAUTYPE =  2
   angular momentum for each species LDAUL =     0    0    2    0    0
   U (eV)           for each species LDAUU =   0.0  0.0  5.3  0.0  0.0
   J (eV)           for each species LDAUJ =   0.0  0.0  0.0  0.0  0.0
 Exchange correlation treatment:
   GGA     =    --    GGA type
   LEXCH   =     8    internal setting for exchange type
   LIBXC   =     F    Libxc                    
   VOSKOWN =     0    Vosko Wilk Nusair interpolation
   LHFCALC =     F    Hartree Fock is set to
   LHFONE  =     F    Hartree Fock one center treatment
   AEXX    =    0.0000 exact exchange contribution

 Linear response parameters
   LEPSILON=     F    determine dielectric tensor
   LRPA    =     F    only Hartree local field effects (RPA)
   LNABLA  =     F    use nabla operator in PAW spheres
   LVEL    =     F    velocity operator in full k-point grid
   CSHIFT  =0.1000    complex shift for real part using Kramers Kronig
   OMEGAMAX=  -1.0    maximum frequency
   DEG_THRESHOLD= 0.2000000E-02 threshold for treating states as degnerate
   RTIME   =   -0.100 relaxation time in fs
  (WPLASMAI=    0.000 imaginary part of plasma frequency in eV, 0.658/RTIME)
   DFIELD  = 0.0000000 0.0000000 0.0000000 field for delta impulse in time
 
  Optional k-point grid parameters
   LKPOINTS_OPT  =     F    use optional k-point grid
   KPOINTS_OPT_MODE=     1    mode for optional k-point grid
 
 Orbital magnetization related:
   ORBITALMAG=     F  switch on orbital magnetization
   LCHIMAG   =     F  perturbation theory with respect to B field
   DQ        =  0.001000  dq finite difference perturbation B field
   LLRAUG    =     F  two centre corrections for induced B field



--------------------------------------------------------------------------------------------------------


 conjugate gradient relaxation of ions
 charge density and potential will be updated during run
 spin polarized calculation
 RMM-DIIS sequential band-by-band and
  variant of blocked Davidson during initial phase
 perform sub-space diagonalisation
    before iterative eigenvector-optimisation
 modified Broyden-mixing scheme, WC =      100.0
 initial mixing is a Kerker type mixing with AMIX =  0.4000 and BMIX =      1.0000
 Hartree-type preconditioning will be used
 using additional bands            74
 real space projection scheme for non local part
 use partial core corrections
 calculate Harris-corrections to forces 
   (improved forces if not selfconsistent)
 use gradient corrections 
 use of overlap-Matrix (Vanderbilt PP)
 Fermi weights with tetrahedron method with Bloechl corrections


--------------------------------------------------------------------------------------------------------


  energy-cutoff  :      520.00
  volume of cell :      735.36
      direct lattice vectors                 reciprocal lattice vectors
     9.013366140  0.000000000  0.000000000     0.110946342  0.000000000  0.000000000
     0.000000000  9.045715090  0.000000000     0.000000000  0.110549580  0.000000000
     0.000000000  0.000000000  9.019235600     0.000000000  0.000000000  0.110874141

  length of vectors
     9.013366140  9.045715090  9.019235600     0.110946342  0.110549580  0.110874141


 
 k-points in units of 2pi/SCALE and weight: Kpoints from vasprun.xml                
   0.00000000  0.00000000  0.00000000       0.125
   0.05547317  0.00000000  0.00000000       0.125
   0.00000000  0.05527479  0.00000000       0.125
   0.05547317  0.05527479  0.00000000       0.125
   0.00000000  0.00000000  0.05543707       0.125
   0.05547317  0.00000000  0.05543707       0.125
   0.00000000  0.05527479  0.05543707       0.125
   0.05547317  0.05527479  0.05543707       0.125
 
 k-points in reciprocal lattice and weights: Kpoints from vasprun.xml                
   0.00000000  0.00000000  0.00000000       0.125
   0.50000000  0.00000000  0.00000000       0.125
   0.00000000  0.50000000  0.00000000       0.125
   0.50000000  0.50000000  0.00000000       0.125
   0.00000000  0.00000000  0.50000000       0.125
   0.50000000  0.00000000  0.50000000       0.125
   0.00000000  0.50000000  0.50000000       0.125
   0.50000000  0.50000000  0.50000000       0.125
 
 position of ions in fractional coordinates (direct lattice) 
   0.50000000  0.00000000  0.50000000
   0.50000000  0.50000000  0.00000000
   0.00000000  0.50000000  0.00000000
   0.00000000  0.00000000  0.50000000
   0.00000000  0.50000000  0.50000000
   0.50000000  0.00000000  0.00000000
   0.00000000  0.00000000  0.00000000
   0.50000000  0.50000000  0.50000000
   0.25000000  0.25000000  0.25000000
   0.75000000  0.75000000  0.25000000
   0.75000000  0.25000000  0.75000000
   0.25000000  0.75000000  0.75000000
   0.75000000  0.75000000  0.75000000
   0.25000000  0.25000000  0.75000000
   0.25000000  0.75000000  0.25000000
   0.75000000  0.25000000  0.25000000
   0.96771650  0.20618676  0.28768350
   0.03228350  0.79381324  0.28768350
   0.03228350  0.20618676  0.71231650
   0.96771650  0.79381324  0.71231650
   0.28960756  0.96651148  0.20806656
   0.28960756  0.03348852  0.79193344
   0.71039244  0.03348852  0.20806656
   0.71039244  0.96651148  0.79193344
   0.20732350  0.29064896  0.96685268
   0.79267650  0.29064896  0.03314732
   0.20732350  0.70935104  0.03314732
   0.79267650  0.70935104  0.96685268
   0.53228350  0.29381324  0.21231650
   0.46771650  0.70618676  0.21231650
   0.46771650  0.29381324  0.78768350
   0.53228350  0.70618676  0.78768350
   0.21039244  0.53348852  0.29193344
   0.21039244  0.46651148  0.70806656
   0.78960756  0.46651148  0.29193344
   0.78960756  0.53348852  0.70806656
   0.29267650  0.20935104  0.53314732
   0.70732350  0.20935104  0.46685268
   0.29267650  0.79064896  0.46685268
   0.70732350  0.79064896  0.53314732
 
 position of ions in cartesian coordinates  (Angst):
   4.50668307  0.00000000  4.50961780
   4.50668307  4.52285754  0.00000000
   0.00000000  4.52285754  0.00000000
   0.00000000  0.00000000  4.50961780
   0.00000000  4.52285754  4.50961780
   4.50668307  0.00000000  0.00000000
   0.00000000  0.00000000  0.00000000
   4.50668307  4.52285754  4.50961780
   2.25334154  2.26142877  2.25480890
   6.76002460  6.78428632  2.25480890
   6.76002460  2.26142877  6.76442670
   2.25334154  6.78428632  6.76442670
   6.76002460  6.78428632  6.76442670
   2.25334154  2.26142877  6.76442670
   2.25334154  6.78428632  2.25480890
   6.76002460  2.26142877  2.25480890
   8.72238313  1.86510669  2.59468526
   0.29098301  7.18060840  2.59468526
   0.29098301  1.86510669  6.42455034
   8.72238313  7.18060840  6.42455034
   2.61033898  8.74278748  1.87660133
   2.61033898  0.30292761  7.14263427
   6.40302716  0.30292761  1.87660133
   6.40302716  8.74278748  7.14263427
   1.86868261  2.62912768  8.72027211
   7.14468353  2.62912768  0.29896349
   1.86868261  6.41658741  0.29896349
   7.14468353  6.41658741  8.72027211
   4.79766608  2.65775086  1.91493254
   4.21570006  6.38796423  1.91493254
   4.21570006  2.65775086  7.10430306
   4.79766608  6.38796423  7.10430306
   1.89634409  4.82578516  2.63301647
   1.89634409  4.21992993  6.38621913
   7.11702205  4.21992993  2.63301647
   7.11702205  4.82578516  6.38621913
   2.63800046  1.89372986  4.80858129
   6.37536568  1.89372986  4.21065431
   2.63800046  7.15198523  4.21065431
   6.37536568  7.15198523  4.80858129
 


--------------------------------------------------------------------------------------------------------


 k-point   1 :   0.0000 0.0000 0.0000  plane waves:   19841
 k-point   2 :   0.5000 0.0000 0.0000  plane waves:   19846
 k-point   3 :   0.0000 0.5000 0.0000  plane waves:   19870
 k-point   4 :   0.5000 0.5000 0.0000  plane waves:   19780
 k-point   5 :   0.0000 0.0000 0.5000  plane waves:   19850
 k-point   6 :   0.5000 0.0000 0.5000  plane waves:   19776
 k-point   7 :   0.0000 0.5000 0.5000  plane waves:   19772
 k-point   8 :   0.5000 0.5000 0.5000  plane waves:   19760

 maximum and minimum number of plane-waves per node :     19870    19760

 maximum number of plane-waves:     19870
 maximum index in each direction: 
   IXMAX=   16   IYMAX=   16   IZMAX=   16
   IXMIN=  -17   IYMIN=  -17   IZMIN=  -17


 serial   3D FFT for wavefunctions
 parallel 3D FFT for charge:
    minimum data exchange during FFTs selected (reduces bandwidth)


 total amount of memory used by VASP MPI-rank0   534560. kBytes
=======================================================================

   base      :      30000. kBytes
   nonlr-proj:      31269. kBytes
   fftplans  :      24743. kBytes
   grid      :      99803. kBytes
   one-center:       3932. kBytes
   wavefun   :     344813. kBytes
 
     INWAV:  cpu time      0.0001: real time      0.0003
 Broyden mixing: mesh for mixing (old mesh)
   NGX = 33   NGY = 33   NGZ = 33
  (NGX  =140   NGY  =140   NGZ  =140)
  gives a total of  35937 points

 initial charge density was supplied:
 charge density of overlapping atoms calculated
 number of electron     380.0000000 magnetization      67.2000000
 keeping initial charge density in first step


--------------------------------------------------------------------------------------------------------


 Maximum index for non-local projection operator          8217
 Maximum index for augmentation-charges          8866 (set IRDMAX)


--------------------------------------------------------------------------------------------------------


 First call to EWALD:  gamma=   0.196
 Maximum number of real-space cells 3x 3x 3
 Maximum number of reciprocal cells 3x 3x 3

    FEWALD:  cpu time      0.0028: real time      0.0028


--------------------------------------- Iteration      1(   1)  ---------------------------------------


    POTLOK:  cpu time      0.1558: real time      0.2117
    SETDIJ:  cpu time      0.0502: real time      0.0502
atom =   1  type =  1  l = 0
 
 onsite density matrix
 
spin component  1
 
  1.1921
 
spin component  2
 
  1.0687
 
 occupancies and eigenvectors
 
  o =  1.0687  v =  0.0000  1.0000      0.0000  0.0000
  o =  1.1921  v =  1.0000  0.0000      0.0000  0.0000
 
atom =   2  type =  1  l = 0
 
 onsite density matrix
 
spin component  1
 
  1.1921
 
spin component  2
 
  1.0687
 
 occupancies and eigenvectors
 
  o =  1.0687  v =  0.0000  1.0000      0.0000  0.0000
  o =  1.1921  v =  1.0000  0.0000      0.0000  0.0000
 
atom =   3  type =  1  l = 0
 
 onsite density matrix
 
spin component  1
 
  1.1921
 
spin component  2
 
  1.0687
 
 occupancies and eigenvectors
 
  o =  1.0687  v =  0.0000  1.0000      0.0000  0.0000
  o =  1.1921  v =  1.0000  0.0000      0.0000  0.0000
 
atom =   4  type =  1  l = 0
 
 onsite density matrix
 
spin component  1
 
  1.1921
 
spin component  2
 
  1.0687
 
 occupancies and eigenvectors
 
  o =  1.0687  v =  0.0000  1.0000      0.0000  0.0000
  o =  1.1921  v =  1.0000  0.0000      0.0000  0.0000
 
atom =   5  type =  2  l = 0
 
 onsite density matrix
 
spin component  1
 
  1.6475
 
spin component  2
 
  0.6864
 
 occupancies and eigenvectors
 
  o =  0.6864  v =  0.0000  1.0000      0.0000  0.0000
  o =  1.6475  v =  1.0000  0.0000      0.0000  0.0000
 
atom =   6  type =  2  l = 0
 
 onsite density matrix
 
spin component  1
 
  1.6475
 
spin component  2
 
  0.6864
 
 occupancies and eigenvectors
 
  o =  0.6864  v =  0.0000  1.0000      0.0000  0.0000
  o =  1.6475  v =  1.0000  0.0000      0.0000  0.0000
 
atom =   7  type =  2  l = 0
 
 onsite density matrix
 
spin component  1
 
  1.6475
 
spin component  2
 
  0.6864
 
 occupancies and eigenvectors
 
  o =  0.6864  v =  0.0000  1.0000      0.0000  0.0000
  o =  1.6475  v =  1.0000  0.0000      0.0000  0.0000
 
atom =   8  type =  2  l = 0
 
 onsite density matrix
 
spin component  1
 
  1.6475
 
spin component  2
 
  0.6864
 
 occupancies and eigenvectors
 
  o =  0.6864  v =  0.0000  1.0000      0.0000  0.0000
  o =  1.6475  v =  1.0000  0.0000      0.0000  0.0000
 
atom =   9  type =  3  l = 2
 
 onsite density matrix
 
spin component  1
 
  0.8527  0.0000  0.0000  0.0000  0.0000
  0.0000  0.8527  0.0000  0.0000  0.0000
  0.0000  0.0000  0.8527  0.0000  0.0000
  0.0000  0.0000  0.0000  0.8527  0.0000
  0.0000  0.0000  0.0000  0.0000  0.8527
 
spin component  2
 
  0.4039  0.0000  0.0000  0.0000  0.0000
  0.0000  0.4039  0.0000  0.0000  0.0000
  0.0000  0.0000  0.4039  0.0000  0.0000
  0.0000  0.0000  0.0000  0.4039  0.0000
  0.0000  0.0000  0.0000  0.0000  0.4039
 
 occupancies and eigenvectors
 
  o =  0.4039  v =  0.0000  0.0000  0.0000  0.0000  0.0000  0.0000  0.0000  1.0000  0.0000  0.0000      0.0000  0.0000  0.0000  0.0000  0.0000  0.0000  0.0000  0.0000  0.0000  0.0000
  o =  0.4039  v = -0.0000 -0.0000 -0.0000 -0.0000 -0.0000 -0.0000 -0.0000 -0.0000  0.5257  0.8507     -0.0000 -0.0000 -0.0000 -0.0000 -0.0000 -0.0000 -0.0000 -0.0000 -0.0000  0.0000
  o =  0.4039  v =  0.0000  0.0000  0.0000  0.0000  0.0000  1.0000  0.0000  0.0000  0.0000  0.0000      0.0000  0.0000  0.0000  0.0000  0.0000  0.0000  0.0000  0.0000  0.0000  0.0000
  o =  0.4039  v =  0.0000  0.0000  0.0000  0.0000  0.0000  0.0000  1.0000  0.0000  0.0000  0.0000      0.0000  0.0000  0.0000  0.0000  0.0000  0.0000  0.0000  0.0000  0.0000  0.0000
  o =  0.4039  v =  0.0000  0.0000  0.0000  0.0000  0.0000  0.0000  0.0000  0.0000 -0.8507  0.5257      0.0000  0.0000  0.0000  0.0000  0.0000  0.0000  0.0000  0.0000  0.0000  0.0000
  o =  0.8527  v =  0.0000  0.0000  1.0000  0.0000  0.0000  0.0000  0.0000  0.0000  0.0000  0.0000      0.0000  0.0000  0.0000  0.0000  0.0000  0.0000  0.0000  0.0000  0.0000  0.0000
  o =  0.8527  v = -0.0000 -0.0000 -0.0000  0.5257  0.8507  0.0000  0.0000  0.0000  0.0000  0.0000     -0.0000 -0.0000 -0.0000 -0.0000 -0.0000 -0.0000 -0.0000 -0.0000 -0.0000 -0.0000
  o =  0.8527  v =  1.0000  0.0000  0.0000  0.0000  0.0000  0.0000  0.0000  0.0000  0.0000  0.0000      0.0000  0.0000  0.0000  0.0000  0.0000  0.0000  0.0000  0.0000  0.0000  0.0000
  o =  0.8527  v =  0.0000  0.0000  0.0000 -0.8507  0.5257  0.0000  0.0000  0.0000  0.0000  0.0000      0.0000  0.0000  0.0000  0.0000  0.0000  0.0000  0.0000  0.0000  0.0000  0.0000
  o =  0.8527  v =  0.0000  1.0000  0.0000  0.0000  0.0000  0.0000  0.0000  0.0000  0.0000  0.0000      0.0000  0.0000  0.0000  0.0000  0.0000  0.0000  0.0000  0.0000  0.0000  0.0000
 
atom =  10  type =  3  l = 2
 
 onsite density matrix
 
spin component  1
 
  0.8527  0.0000  0.0000  0.0000  0.0000
  0.0000  0.8527  0.0000  0.0000  0.0000
  0.0000  0.0000  0.8527  0.0000  0.0000
  0.0000  0.0000  0.0000  0.8527  0.0000
  0.0000  0.0000  0.0000  0.0000  0.8527
 
spin component  2
 
  0.4039  0.0000  0.0000  0.0000  0.0000
  0.0000  0.4039  0.0000  0.0000  0.0000
  0.0000  0.0000  0.4039  0.0000  0.0000
  0.0000  0.0000  0.0000  0.4039  0.0000
  0.0000  0.0000  0.0000  0.0000  0.4039
 
 occupancies and eigenvectors
 
  o =  0.4039  v =  0.0000  0.0000  0.0000  0.0000  0.0000  0.0000  0.0000  1.0000  0.0000  0.0000      0.0000  0.0000  0.0000  0.0000  0.0000  0.0000  0.0000  0.0000  0.0000  0.0000
  o =  0.4039  v = -0.0000 -0.0000 -0.0000 -0.0000 -0.0000 -0.0000 -0.0000 -0.0000  0.5257  0.8507     -0.0000 -0.0000 -0.0000 -0.0000 -0.0000 -0.0000 -0.0000 -0.0000 -0.0000  0.0000
  o =  0.4039  v =  0.0000  0.0000  0.0000  0.0000  0.0000  1.0000  0.0000  0.0000  0.0000  0.0000      0.0000  0.0000  0.0000  0.0000  0.0000  0.0000  0.0000  0.0000  0.0000  0.0000
  o =  0.4039  v =  0.0000  0.0000  0.0000  0.0000  0.0000  0.0000  1.0000  0.0000  0.0000  0.0000      0.0000  0.0000  0.0000  0.0000  0.0000  0.0000  0.0000  0.0000  0.0000  0.0000
  o =  0.4039  v =  0.0000  0.0000  0.0000  0.0000  0.0000  0.0000  0.0000  0.0000 -0.8507  0.5257      0.0000  0.0000  0.0000  0.0000  0.0000  0.0000  0.0000  0.0000  0.0000  0.0000
  o =  0.8527  v =  0.0000  0.0000  1.0000  0.0000  0.0000  0.0000  0.0000  0.0000  0.0000  0.0000      0.0000  0.0000  0.0000  0.0000  0.0000  0.0000  0.0000  0.0000  0.0000  0.0000
  o =  0.8527  v = -0.0000 -0.0000 -0.0000  0.5257  0.8507  0.0000  0.0000  0.0000  0.0000  0.0000     -0.0000 -0.0000 -0.0000 -0.0000 -0.0000 -0.0000 -0.0000 -0.0000 -0.0000 -0.0000
  o =  0.8527  v =  1.0000  0.0000  0.0000  0.0000  0.0000  0.0000  0.0000  0.0000  0.0000  0.0000      0.0000  0.0000  0.0000  0.0000  0.0000  0.0000  0.0000  0.0000  0.0000  0.0000
  o =  0.8527  v =  0.0000  0.0000  0.0000 -0.8507  0.5257  0.0000  0.0000  0.0000  0.0000  0.0000      0.0000  0.0000  0.0000  0.0000  0.0000  0.0000  0.0000  0.0000  0.0000  0.0000
  o =  0.8527  v =  0.0000  1.0000  0.0000  0.0000  0.0000  0.0000  0.0000  0.0000  0.0000  0.0000      0.0000  0.0000  0.0000  0.0000  0.0000  0.0000  0.0000  0.0000  0.0000  0.0000
 
atom =  11  type =  3  l = 2
 
 onsite density matrix
 
spin component  1
 
  0.8527  0.0000  0.0000  0.0000  0.0000
  0.0000  0.8527  0.0000  0.0000  0.0000
  0.0000  0.0000  0.8527  0.0000  0.0000
  0.0000  0.0000  0.0000  0.8527  0.0000
  0.0000  0.0000  0.0000  0.0000  0.8527
 
spin component  2
 
  0.4039  0.0000  0.0000  0.0000  0.0000
  0.0000  0.4039  0.0000  0.0000  0.0000
  0.0000  0.0000  0.4039  0.0000  0.0000
  0.0000  0.0000  0.0000  0.4039  0.0000
  0.0000  0.0000  0.0000  0.0000  0.4039
 
 occupancies and eigenvectors
 
  o =  0.4039  v =  0.0000  0.0000  0.0000  0.0000  0.0000  0.0000  0.0000  1.0000  0.0000  0.0000      0.0000  0.0000  0.0000  0.0000  0.0000  0.0000  0.0000  0.0000  0.0000  0.0000
  o =  0.4039  v = -0.0000 -0.0000 -0.0000 -0.0000 -0.0000 -0.0000 -0.0000 -0.0000  0.5257  0.8507     -0.0000 -0.0000 -0.0000 -0.0000 -0.0000 -0.0000 -0.0000 -0.0000 -0.0000  0.0000
  o =  0.4039  v =  0.0000  0.0000  0.0000  0.0000  0.0000  1.0000  0.0000  0.0000  0.0000  0.0000      0.0000  0.0000  0.0000  0.0000  0.0000  0.0000  0.0000  0.0000  0.0000  0.0000
  o =  0.4039  v =  0.0000  0.0000  0.0000  0.0000  0.0000  0.0000  1.0000  0.0000  0.0000  0.0000      0.0000  0.0000  0.0000  0.0000  0.0000  0.0000  0.0000  0.0000  0.0000  0.0000
  o =  0.4039  v =  0.0000  0.0000  0.0000  0.0000  0.0000  0.0000  0.0000  0.0000 -0.8507  0.5257      0.0000  0.0000  0.0000  0.0000  0.0000  0.0000  0.0000  0.0000  0.0000  0.0000
  o =  0.8527  v =  0.0000  0.0000  1.0000  0.0000  0.0000  0.0000  0.0000  0.0000  0.0000  0.0000      0.0000  0.0000  0.0000  0.0000  0.0000  0.0000  0.0000  0.0000  0.0000  0.0000
  o =  0.8527  v = -0.0000 -0.0000 -0.0000  0.5257  0.8507  0.0000  0.0000  0.0000  0.0000  0.0000     -0.0000 -0.0000 -0.0000 -0.0000 -0.0000 -0.0000 -0.0000 -0.0000 -0.0000 -0.0000
  o =  0.8527  v =  1.0000  0.0000  0.0000  0.0000  0.0000  0.0000  0.0000  0.0000  0.0000  0.0000      0.0000  0.0000  0.0000  0.0000  0.0000  0.0000  0.0000  0.0000  0.0000  0.0000
  o =  0.8527  v =  0.0000  0.0000  0.0000 -0.8507  0.5257  0.0000  0.0000  0.0000  0.0000  0.0000      0.0000  0.0000  0.0000  0.0000  0.0000  0.0000  0.0000  0.0000  0.0000  0.0000
  o =  0.8527  v =  0.0000  1.0000  0.0000  0.0000  0.0000  0.0000  0.0000  0.0000  0.0000  0.0000      0.0000  0.0000  0.0000  0.0000  0.0000  0.0000  0.0000  0.0000  0.0000  0.0000
 
atom =  12  type =  3  l = 2
 
 onsite density matrix
 
spin component  1
 
  0.8527  0.0000  0.0000  0.0000  0.0000
  0.0000  0.8527  0.0000  0.0000  0.0000
  0.0000  0.0000  0.8527  0.0000  0.0000
  0.0000  0.0000  0.0000  0.8527  0.0000
  0.0000  0.0000  0.0000  0.0000  0.8527
 
spin component  2
 
  0.4039  0.0000  0.0000  0.0000  0.0000
  0.0000  0.4039  0.0000  0.0000  0.0000
  0.0000  0.0000  0.4039  0.0000  0.0000
  0.0000  0.0000  0.0000  0.4039  0.0000
  0.0000  0.0000  0.0000  0.0000  0.4039
 
 occupancies and eigenvectors
 
  o =  0.4039  v =  0.0000  0.0000  0.0000  0.0000  0.0000  0.0000  0.0000  1.0000  0.0000  0.0000      0.0000  0.0000  0.0000  0.0000  0.0000  0.0000  0.0000  0.0000  0.0000  0.0000
  o =  0.4039  v = -0.0000 -0.0000 -0.0000 -0.0000 -0.0000 -0.0000 -0.0000 -0.0000  0.5257  0.8507     -0.0000 -0.0000 -0.0000 -0.0000 -0.0000 -0.0000 -0.0000 -0.0000 -0.0000  0.0000
  o =  0.4039  v =  0.0000  0.0000  0.0000  0.0000  0.0000  1.0000  0.0000  0.0000  0.0000  0.0000      0.0000  0.0000  0.0000  0.0000  0.0000  0.0000  0.0000  0.0000  0.0000  0.0000
  o =  0.4039  v =  0.0000  0.0000  0.0000  0.0000  0.0000  0.0000  1.0000  0.0000  0.0000  0.0000      0.0000  0.0000  0.0000  0.0000  0.0000  0.0000  0.0000  0.0000  0.0000  0.0000
  o =  0.4039  v =  0.0000  0.0000  0.0000  0.0000  0.0000  0.0000  0.0000  0.0000 -0.8507  0.5257      0.0000  0.0000  0.0000  0.0000  0.0000  0.0000  0.0000  0.0000  0.0000  0.0000
  o =  0.8527  v =  0.0000  0.0000  1.0000  0.0000  0.0000  0.0000  0.0000  0.0000  0.0000  0.0000      0.0000  0.0000  0.0000  0.0000  0.0000  0.0000  0.0000  0.0000  0.0000  0.0000
  o =  0.8527  v = -0.0000 -0.0000 -0.0000  0.5257  0.8507  0.0000  0.0000  0.0000  0.0000  0.0000     -0.0000 -0.0000 -0.0000 -0.0000 -0.0000 -0.0000 -0.0000 -0.0000 -0.0000 -0.0000
  o =  0.8527  v =  1.0000  0.0000  0.0000  0.0000  0.0000  0.0000  0.0000  0.0000  0.0000  0.0000      0.0000  0.0000  0.0000  0.0000  0.0000  0.0000  0.0000  0.0000  0.0000  0.0000
  o =  0.8527  v =  0.0000  0.0000  0.0000 -0.8507  0.5257  0.0000  0.0000  0.0000  0.0000  0.0000      0.0000  0.0000  0.0000  0.0000  0.0000  0.0000  0.0000  0.0000  0.0000  0.0000
  o =  0.8527  v =  0.0000  1.0000  0.0000  0.0000  0.0000  0.0000  0.0000  0.0000  0.0000  0.0000      0.0000  0.0000  0.0000  0.0000  0.0000  0.0000  0.0000  0.0000  0.0000  0.0000
 
atom =  13  type =  4  l = 0
 
 onsite density matrix
 
spin component  1
 
  0.1279
 
spin component  2
 
  0.1192
 
 occupancies and eigenvectors
 
  o =  0.1192  v =  0.0000  1.0000      0.0000  0.0000
  o =  0.1279  v =  1.0000  0.0000      0.0000  0.0000
 
atom =  14  type =  4  l = 0
 
 onsite density matrix
 
spin component  1
 
  0.1279
 
spin component  2
 
  0.1192
 
 occupancies and eigenvectors
 
  o =  0.1192  v =  0.0000  1.0000      0.0000  0.0000
  o =  0.1279  v =  1.0000  0.0000      0.0000  0.0000
 
atom =  15  type =  4  l = 0
 
 onsite density matrix
 
spin component  1
 
  0.1279
 
spin component  2
 
  0.1192
 
 occupancies and eigenvectors
 
  o =  0.1192  v =  0.0000  1.0000      0.0000  0.0000
  o =  0.1279  v =  1.0000  0.0000      0.0000  0.0000
 
atom =  16  type =  4  l = 0
 
 onsite density matrix
 
spin component  1
 
  0.1279
 
spin component  2
 
  0.1192
 
 occupancies and eigenvectors
 
  o =  0.1192  v =  0.0000  1.0000      0.0000  0.0000
  o =  0.1279  v =  1.0000  0.0000      0.0000  0.0000
 
atom =  17  type =  5  l = 0
 
 onsite density matrix
 
spin component  1
 
  0.9009
 
spin component  2
 
  0.7371
 
 occupancies and eigenvectors
 
  o =  0.7371  v =  0.0000  1.0000      0.0000  0.0000
  o =  0.9009  v =  1.0000  0.0000      0.0000  0.0000
 
atom =  18  type =  5  l = 0
 
 onsite density matrix
 
spin component  1
 
  0.9009
 
spin component  2
 
  0.7371
 
 occupancies and eigenvectors
 
  o =  0.7371  v =  0.0000  1.0000      0.0000  0.0000
  o =  0.9009  v =  1.0000  0.0000      0.0000  0.0000
 
atom =  19  type =  5  l = 0
 
 onsite density matrix
 
spin component  1
 
  0.9009
 
spin component  2
 
  0.7371
 
 occupancies and eigenvectors
 
  o =  0.7371  v =  0.0000  1.0000      0.0000  0.0000
  o =  0.9009  v =  1.0000  0.0000      0.0000  0.0000
 
atom =  20  type =  5  l = 0
 
 onsite density matrix
 
spin component  1
 
  0.9009
 
spin component  2
 
  0.7371
 
 occupancies and eigenvectors
 
  o =  0.7371  v =  0.0000  1.0000      0.0000  0.0000
  o =  0.9009  v =  1.0000  0.0000      0.0000  0.0000
 
atom =  21  type =  5  l = 0
 
 onsite density matrix
 
spin component  1
 
  0.9009
 
spin component  2
 
  0.7371
 
 occupancies and eigenvectors
 
  o =  0.7371  v =  0.0000  1.0000      0.0000  0.0000
  o =  0.9009  v =  1.0000  0.0000      0.0000  0.0000
 
atom =  22  type =  5  l = 0
 
 onsite density matrix
 
spin component  1
 
  0.9009
 
spin component  2
 
  0.7371
 
 occupancies and eigenvectors
 
  o =  0.7371  v =  0.0000  1.0000      0.0000  0.0000
  o =  0.9009  v =  1.0000  0.0000      0.0000  0.0000
 
atom =  23  type =  5  l = 0
 
 onsite density matrix
 
spin component  1
 
  0.9009
 
spin component  2
 
  0.7371
 
 occupancies and eigenvectors
 
  o =  0.7371  v =  0.0000  1.0000      0.0000  0.0000
  o =  0.9009  v =  1.0000  0.0000      0.0000  0.0000
 
atom =  24  type =  5  l = 0
 
 onsite density matrix
 
spin component  1
 
  0.9009
 
spin component  2
 
  0.7371
 
 occupancies and eigenvectors
 
  o =  0.7371  v =  0.0000  1.0000      0.0000  0.0000
  o =  0.9009  v =  1.0000  0.0000      0.0000  0.0000
 
atom =  25  type =  5  l = 0
 
 onsite density matrix
 
spin component  1
 
  0.9009
 
spin component  2
 
  0.7371
 
 occupancies and eigenvectors
 
  o =  0.7371  v =  0.0000  1.0000      0.0000  0.0000
  o =  0.9009  v =  1.0000  0.0000      0.0000  0.0000
 
atom =  26  type =  5  l = 0
 
 onsite density matrix
 
spin component  1
 
  0.9009
 
spin component  2
 
  0.7371
 
 occupancies and eigenvectors
 
  o =  0.7371  v =  0.0000  1.0000      0.0000  0.0000
  o =  0.9009  v =  1.0000  0.0000      0.0000  0.0000
 
atom =  27  type =  5  l = 0
 
 onsite density matrix
 
spin component  1
 
  0.9009
 
spin component  2
 
  0.7371
 
 occupancies and eigenvectors
 
  o =  0.7371  v =  0.0000  1.0000      0.0000  0.0000
  o =  0.9009  v =  1.0000  0.0000      0.0000  0.0000
 
atom =  28  type =  5  l = 0
 
 onsite density matrix
 
spin component  1
 
  0.9009
 
spin component  2
 
  0.7371
 
 occupancies and eigenvectors
 
  o =  0.7371  v =  0.0000  1.0000      0.0000  0.0000
  o =  0.9009  v =  1.0000  0.0000      0.0000  0.0000
 
atom =  29  type =  5  l = 0
 
 onsite density matrix
 
spin component  1
 
  0.9009
 
spin component  2
 
  0.7371
 
 occupancies and eigenvectors
 
  o =  0.7371  v =  0.0000  1.0000      0.0000  0.0000
  o =  0.9009  v =  1.0000  0.0000      0.0000  0.0000
 
atom =  30  type =  5  l = 0
 
 onsite density matrix
 
spin component  1
 
  0.9009
 
spin component  2
 
  0.7371
 
 occupancies and eigenvectors
 
  o =  0.7371  v =  0.0000  1.0000      0.0000  0.0000
  o =  0.9009  v =  1.0000  0.0000      0.0000  0.0000
 
atom =  31  type =  5  l = 0
 
 onsite density matrix
 
spin component  1
 
  0.9009
 
spin component  2
 
  0.7371
 
 occupancies and eigenvectors
 
  o =  0.7371  v =  0.0000  1.0000      0.0000  0.0000
  o =  0.9009  v =  1.0000  0.0000      0.0000  0.0000
 
atom =  32  type =  5  l = 0
 
 onsite density matrix
 
spin component  1
 
  0.9009
 
spin component  2
 
  0.7371
 
 occupancies and eigenvectors
 
  o =  0.7371  v =  0.0000  1.0000      0.0000  0.0000
  o =  0.9009  v =  1.0000  0.0000      0.0000  0.0000
 
atom =  33  type =  5  l = 0
 
 onsite density matrix
 
spin component  1
 
  0.9009
 
spin component  2
 
  0.7371
 
 occupancies and eigenvectors
 
  o =  0.7371  v =  0.0000  1.0000      0.0000  0.0000
  o =  0.9009  v =  1.0000  0.0000      0.0000  0.0000
 
atom =  34  type =  5  l = 0
 
 onsite density matrix
 
spin component  1
 
  0.9009
 
spin component  2
 
  0.7371
 
 occupancies and eigenvectors
 
  o =  0.7371  v =  0.0000  1.0000      0.0000  0.0000
  o =  0.9009  v =  1.0000  0.0000      0.0000  0.0000
 
atom =  35  type =  5  l = 0
 
 onsite density matrix
 
spin component  1
 
  0.9009
 
spin component  2
 
  0.7371
 
 occupancies and eigenvectors
 
  o =  0.7371  v =  0.0000  1.0000      0.0000  0.0000
  o =  0.9009  v =  1.0000  0.0000      0.0000  0.0000
 
atom =  36  type =  5  l = 0
 
 onsite density matrix
 
spin component  1
 
  0.9009
 
spin component  2
 
  0.7371
 
 occupancies and eigenvectors
 
  o =  0.7371  v =  0.0000  1.0000      0.0000  0.0000
  o =  0.9009  v =  1.0000  0.0000      0.0000  0.0000
 
atom =  37  type =  5  l = 0
 
 onsite density matrix
 
spin component  1
 
  0.9009
 
spin component  2
 
  0.7371
 
 occupancies and eigenvectors
 
  o =  0.7371  v =  0.0000  1.0000      0.0000  0.0000
  o =  0.9009  v =  1.0000  0.0000      0.0000  0.0000
 
atom =  38  type =  5  l = 0
 
 onsite density matrix
 
spin component  1
 
  0.9009
 
spin component  2
 
  0.7371
 
 occupancies and eigenvectors
 
  o =  0.7371  v =  0.0000  1.0000      0.0000  0.0000
  o =  0.9009  v =  1.0000  0.0000      0.0000  0.0000
 
atom =  39  type =  5  l = 0
 
 onsite density matrix
 
spin component  1
 
  0.9009
 
spin component  2
 
  0.7371
 
 occupancies and eigenvectors
 
  o =  0.7371  v =  0.0000  1.0000      0.0000  0.0000
  o =  0.9009  v =  1.0000  0.0000      0.0000  0.0000
 
atom =  40  type =  5  l = 0
 
 onsite density matrix
 
spin component  1
 
  0.9009
 
spin component  2
 
  0.7371
 
 occupancies and eigenvectors
 
  o =  0.7371  v =  0.0000  1.0000      0.0000  0.0000
  o =  0.9009  v =  1.0000  0.0000      0.0000  0.0000
 
     EDDAV:  cpu time      5.8743: real time      5.8848
 BZINTS: Fermi energy:   27.519150;  380.000000 electrons
         Band energy: 0.135418E+04;  BLOECHL correction:   -0.821861
       DOS:  cpu time      0.0549: real time      0.0549
    --------------------------------------------
      LOOP:  cpu time      6.1352: real time      6.2016

 eigenvalue-minimisations  : 13456
 total energy-change (2. order) : 0.6110280E+04  (-0.1623702E+05)
 number of electron     380.0000000 magnetization      67.2000000
 augmentation part      380.0000000 magnetization      67.2000000

 Free energy of the ion-electron system (eV)
  ---------------------------------------------------
  alpha Z        PSCENC =      1822.86344076
  Ewald energy   TEWEN  =    -29749.21017304
  -Hartree energ DENC   =    -18531.74747853
  -exchange      EXHF   =         0.00000000
  -V(xc)+E(xc)   XCENC  =      1817.16940327
  PAW double counting   =     41894.32311282   -43314.44903090
  entropy T*S    EENTRO =         0.00000000
  eigenvalues    EBANDS =      1354.17719582
  atomic energy  EATOM  =     50817.15313206
  Solvation  Ediel_sol  =         0.00000000
  ---------------------------------------------------
  free energy    TOTEN  =      6110.27960226 eV

  energy without entropy =     6110.27960226  energy(sigma->0) =     6110.27960226


[...]
    2        2.026   5.782   0.463   0.000   8.271
    3        2.026   5.784   0.467   0.000   8.276
    4        2.026   5.782   0.463   0.000   8.271
    5        2.044   5.867   0.310   6.367  14.588
    6        2.044   5.867   0.310   6.367  14.588
    7        2.038   5.856   0.191   6.278  14.363
    8        2.038   5.856   0.191   6.278  14.363
    9        0.216   6.091   5.740   0.000  12.047
   10        0.216   6.091   5.740   0.000  12.047
   11        0.216   6.091   5.740   0.000  12.047
   12        0.216   6.091   5.740   0.000  12.047
   13        0.237   6.202   8.681   0.000  15.121
   14        0.237   6.202   8.681   0.000  15.121
   15        0.237   6.202   8.681   0.000  15.121
   16        0.237   6.202   8.681   0.000  15.121
   17        1.574   3.275   0.000   0.000   4.848
   18        1.574   3.275   0.000   0.000   4.848
   19        1.574   3.275   0.000   0.000   4.848
   20        1.574   3.275   0.000   0.000   4.848
   21        1.575   3.262   0.000   0.000   4.837
   22        1.575   3.262   0.000   0.000   4.837
   23        1.575   3.262   0.000   0.000   4.837
   24        1.575   3.262   0.000   0.000   4.837
   25        1.573   3.278   0.000   0.000   4.852
   26        1.573   3.278   0.000   0.000   4.852
   27        1.573   3.278   0.000   0.000   4.852
   28        1.573   3.278   0.000   0.000   4.852
   29        1.574   3.275   0.000   0.000   4.848
   30        1.574   3.275   0.000   0.000   4.848
   31        1.574   3.275   0.000   0.000   4.848
   32        1.574   3.275   0.000   0.000   4.848
   33        1.575   3.262   0.000   0.000   4.837
   34        1.575   3.262   0.000   0.000   4.837
   35        1.575   3.262   0.000   0.000   4.837
   36        1.575   3.262   0.000   0.000   4.837
   37        1.573   3.278   0.000   0.000   4.852
   38        1.573   3.278   0.000   0.000   4.852
   39        1.573   3.278   0.000   0.000   4.852
   40        1.573   3.278   0.000   0.000   4.852
--------------------------------------------------
tot         55.857 174.273  60.544  25.289 315.963



 magnetization (x)

# of ion       s       p       d       f       tot
--------------------------------------------------
    1       -0.002  -0.001  -0.006   0.000  -0.008
    2       -0.001  -0.001  -0.004   0.000  -0.006
    3       -0.002  -0.001  -0.006   0.000  -0.008
    4       -0.001  -0.001  -0.004   0.000  -0.006
    5       -0.017  -0.018   0.052   6.304   6.321
    6       -0.017  -0.018   0.052   6.304   6.321
    7       -0.017  -0.018   0.040   6.253   6.258
    8       -0.017  -0.018   0.040   6.253   6.258
    9        0.034   0.008   3.848   0.000   3.891
   10        0.034   0.008   3.848   0.000   3.891
   11        0.034   0.008   3.848   0.000   3.891
   12        0.034   0.008   3.848   0.000   3.891
   13        0.001   0.005  -0.327   0.000  -0.321
   14        0.001   0.005  -0.327   0.000  -0.321
   15        0.001   0.005  -0.327   0.000  -0.321
   16        0.001   0.005  -0.327   0.000  -0.321
   17       -0.001  -0.023   0.000   0.000  -0.024
   18       -0.001  -0.023   0.000   0.000  -0.024
   19       -0.001  -0.023   0.000   0.000  -0.024
   20       -0.001  -0.023   0.000   0.000  -0.024
   21       -0.001  -0.056   0.000   0.000  -0.057
   22       -0.001  -0.056   0.000   0.000  -0.057
   23       -0.001  -0.056   0.000   0.000  -0.057
   24       -0.001  -0.056   0.000   0.000  -0.057
   25       -0.001  -0.002   0.000   0.000  -0.003
   26       -0.001  -0.002   0.000   0.000  -0.003
   27       -0.001  -0.002   0.000   0.000  -0.003
   28       -0.001  -0.002   0.000   0.000  -0.003
   29       -0.001  -0.023   0.000   0.000  -0.024
   30       -0.001  -0.023   0.000   0.000  -0.024
   31       -0.001  -0.023   0.000   0.000  -0.024
   32       -0.001  -0.023   0.000   0.000  -0.024
   33       -0.001  -0.056   0.000   0.000  -0.057
   34       -0.001  -0.056   0.000   0.000  -0.057
   35       -0.001  -0.056   0.000   0.000  -0.057
   36       -0.001  -0.056   0.000   0.000  -0.057
   37       -0.001  -0.002   0.000   0.000  -0.003
   38       -0.001  -0.002   0.000   0.000  -0.003
   39       -0.001  -0.002   0.000   0.000  -0.003
   40       -0.001  -0.002   0.000   0.000  -0.003
--------------------------------------------------
tot          0.044  -0.668  14.251  25.115  38.742
 
    CHARGE:  cpu time      0.2133: real time      0.2133
    FORLOC:  cpu time      0.0042: real time      0.0042
    FORNL :  cpu time      0.8387: real time      0.8391
    STRESS:  cpu time      2.5406: real time      2.5423
    FORCOR:  cpu time      0.0147: real time      0.0147
    FORHAR:  cpu time      0.0040: real time      0.0041
    MIXING:  cpu time      0.0206: real time      0.0206
    OFIELD:  cpu time      0.0000: real time      0.0000

  FORCE on cell =-STRESS in cart. coord.  units (eV):
  Direction    XX          YY          ZZ          XY          YZ          ZX
  --------------------------------------------------------------------------------------
  Alpha Z  1822.86344  1822.86344  1822.86344
  Ewald   -9764.29969-10063.68246 -9921.36822    -0.00000    -0.00000    -0.00000
  Hartree  6178.24289  5913.39627  6037.95471    -0.00000    -0.00000    -0.00000
  E(xc)   -2113.45850 -2113.63299 -2113.43667    -0.00000     0.00000    -0.00000
  Local   -2183.32096 -1631.25166 -1886.97653    -0.00000     0.00000    -0.00000
  n-local -1568.48072 -1566.41446 -1569.12396    -0.00243     0.00023     0.00986
  augment  1675.02578  1677.32280  1674.87833    -0.00000    -0.00000    -0.00000
  Kinetic  5726.17892  5729.66293  5728.84315     0.00328     0.00144    -0.00034
  Fock        0.00000     0.00000     0.00000     0.00000     0.00000     0.00000
  -------------------------------------------------------------------------------------
  Total    -227.24884  -231.73614  -226.36575     0.00000     0.00000     0.00000
  in kB    -495.12243  -504.89922  -493.19840     0.00000     0.00000     0.00000
  external pressure =     -497.74 kB  Pullay stress =        0.00 kB


 VOLUME and BASIS-vectors are now :
 -----------------------------------------------------------------------------
  energy-cutoff  :      520.00
  volume of cell :      735.36
      direct lattice vectors                 reciprocal lattice vectors
     9.013366140  0.000000000  0.000000000     0.110946342  0.000000000  0.000000000
     0.000000000  9.045715090  0.000000000     0.000000000  0.110549580  0.000000000
     0.000000000  0.000000000  9.019235600     0.000000000  0.000000000  0.110874141

  length of vectors
     9.013366140  9.045715090  9.019235600     0.110946342  0.110549580  0.110874141


 FORCES acting on ions
    electron-ion (+dipol)            ewald-force                    non-local-force                 convergence-correction
 -----------------------------------------------------------------------------------------------
   -.607E-12 -.499E-13 -.764E-11   0.426E-13 0.284E-13 -.497E-13   0.348E-20 0.000E+00 0.000E+00   0.171E-11 0.554E-12 -.187E-12
   0.104E-11 -.673E-11 0.359E-12   0.124E-13 0.568E-13 0.204E-13   0.135E-19 0.000E+00 0.000E+00   0.194E-11 -.402E-12 -.161E-12
   0.660E-12 0.102E-12 0.269E-13   0.480E-13 0.266E-13 0.440E-13   0.120E-19 0.000E+00 0.000E+00   -.152E-11 -.168E-12 -.374E-12
   -.934E-12 -.600E-13 0.565E-13   0.284E-13 0.213E-13 -.364E-13   0.134E-19 0.000E+00 0.000E+00   -.137E-11 0.202E-12 0.252E-12
   0.500E-13 0.894E-12 0.700E-12   -.156E-12 0.142E-13 -.844E-13   0.227E-21 0.000E+00 0.000E+00   -.247E-12 -.566E-12 0.662E-12
   0.606E-12 -.128E-12 0.704E-11   -.213E-12 -.568E-13 0.178E-14   -.130E-20 0.000E+00 0.000E+00   0.955E-12 0.778E-12 0.216E-12
   -.303E-12 -.382E-13 -.131E-13   0.249E-13 0.711E-14 0.977E-14   0.391E-19 0.000E+00 0.000E+00   -.435E-12 0.561E-12 -.795E-12
   0.959E-12 -.765E-11 -.668E-11   0.426E-13 -.426E-13 -.160E-13   -.402E-19 0.000E+00 0.000E+00   0.690E-12 -.988E-12 0.600E-12
   0.978E-12 -.241E-11 -.904E-12   -.688E-13 -.706E-13 0.391E-13   -.204E-19 0.678E-20 0.000E+00   0.157E-11 0.487E-12 0.423E-12
   0.816E-12 0.102E-10 -.589E-11   -.924E-13 0.178E-13 -.284E-13   0.352E-20 0.000E+00 -.542E-19   -.212E-11 -.609E-12 0.255E-12
   0.204E-10 -.211E-10 -.104E-10   0.115E-13 -.622E-13 0.853E-13   0.236E-19 0.000E+00 0.163E-18   -.211E-11 0.120E-11 0.457E-12
   0.726E-12 0.178E-11 0.377E-11   -.355E-13 -.107E-13 -.959E-13   0.983E-19 0.000E+00 -.271E-19   0.607E-12 -.102E-11 0.906E-13
   0.343E-11 0.160E-10 0.176E-13   0.156E-12 0.249E-12 -.227E-12   -.201E-20 -.678E-20 0.000E+00   -.229E-11 -.114E-11 0.367E-12
   0.694E-11 -.145E-11 0.645E-11   -.293E-13 0.110E-12 0.199E-12   0.479E-20 0.678E-20 0.000E+00   0.107E-11 0.718E-12 -.550E-12
   0.294E-11 0.521E-11 0.441E-12   0.128E-12 -.400E-13 0.391E-13   0.191E-20 0.000E+00 0.000E+00   0.668E-12 -.797E-12 -.989E-13
   0.135E-10 -.617E-12 -.310E-10   0.146E-12 -.115E-12 -.142E-13   -.476E-20 0.678E-20 0.000E+00   -.354E-11 0.142E-11 0.462E-12
   -.219E+03 0.561E+02 -.443E+02   0.220E+03 -.548E+02 0.445E+02   -.138E+01 -.113E+01 0.107E+01   0.140E+01 -.767E+00 -.822E+00
   0.219E+03 -.561E+02 -.443E+02   -.220E+03 0.548E+02 0.445E+02   0.138E+01 0.113E+01 0.107E+01   -.140E+01 0.767E+00 -.822E+00
   0.219E+03 0.561E+02 0.443E+02   -.220E+03 -.548E+02 -.445E+02   0.138E+01 -.113E+01 -.107E+01   -.140E+01 -.767E+00 0.822E+00
   -.219E+03 -.561E+02 0.443E+02   0.220E+03 0.548E+02 -.445E+02   -.138E+01 0.113E+01 -.107E+01   0.140E+01 0.767E+00 0.822E+00
   -.226E+02 -.218E+03 -.574E+01   0.224E+02 0.220E+03 0.803E+01   0.357E+00 -.164E+01 0.462E+00   0.156E+00 0.158E+01 -.300E+01
   -.226E+02 0.218E+03 0.574E+01   0.224E+02 -.220E+03 -.803E+01   0.357E+00 0.164E+01 -.462E+00   0.156E+00 -.158E+01 0.300E+01
   0.226E+02 0.218E+03 -.574E+01   -.224E+02 -.220E+03 0.803E+01   -.357E+00 0.164E+01 0.462E+00   -.156E+00 -.158E+01 -.300E+01
   0.226E+02 -.218E+03 0.574E+01   -.224E+02 0.220E+03 -.803E+01   -.357E+00 -.164E+01 -.462E+00   -.156E+00 0.158E+01 0.300E+01
   0.424E+02 -.722E+02 -.223E+03   -.410E+02 0.728E+02 0.225E+03   -.649E+00 0.163E+01 -.145E+01   -.116E+01 -.172E+01 0.130E+01
   -.424E+02 -.722E+02 0.223E+03   0.410E+02 0.728E+02 -.225E+03   0.649E+00 0.163E+01 0.145E+01   0.116E+01 -.172E+01 -.130E+01
   0.424E+02 0.722E+02 0.223E+03   -.410E+02 -.728E+02 -.225E+03   -.649E+00 -.163E+01 0.145E+01   -.116E+01 0.172E+01 -.130E+01
   -.424E+02 0.722E+02 -.223E+03   0.410E+02 -.728E+02 0.225E+03   0.649E+00 -.163E+01 -.145E+01   0.116E+01 0.172E+01 0.130E+01
   0.219E+03 -.561E+02 0.443E+02   -.220E+03 0.548E+02 -.445E+02   0.138E+01 0.113E+01 -.107E+01   -.140E+01 0.767E+00 0.822E+00
   -.219E+03 0.561E+02 0.443E+02   0.220E+03 -.548E+02 -.445E+02   -.138E+01 -.113E+01 -.107E+01   0.140E+01 -.767E+00 0.822E+00
   -.219E+03 -.561E+02 -.443E+02   0.220E+03 0.548E+02 0.445E+02   -.138E+01 0.113E+01 0.107E+01   0.140E+01 0.767E+00 -.822E+00
   0.219E+03 0.561E+02 -.443E+02   -.220E+03 -.548E+02 0.445E+02   0.138E+01 -.113E+01 0.107E+01   -.140E+01 -.767E+00 -.822E+00
   0.226E+02 0.218E+03 0.574E+01   -.224E+02 -.220E+03 -.803E+01   -.357E+00 0.164E+01 -.462E+00   -.156E+00 -.158E+01 0.300E+01
   0.226E+02 -.218E+03 -.574E+01   -.224E+02 0.220E+03 0.803E+01   -.357E+00 -.164E+01 0.462E+00   -.156E+00 0.158E+01 -.300E+01
   -.226E+02 -.218E+03 0.574E+01   0.224E+02 0.220E+03 -.803E+01   0.357E+00 -.164E+01 -.462E+00   0.156E+00 0.158E+01 0.300E+01
   -.226E+02 0.218E+03 -.574E+01   0.224E+02 -.220E+03 0.803E+01   0.357E+00 0.164E+01 0.462E+00   0.156E+00 -.158E+01 -.300E+01
   -.424E+02 0.722E+02 0.223E+03   0.410E+02 -.728E+02 -.225E+03   0.649E+00 -.163E+01 0.145E+01   0.116E+01 0.172E+01 -.130E+01
   0.424E+02 0.722E+02 -.223E+03   -.410E+02 -.728E+02 0.225E+03   -.649E+00 -.163E+01 -.145E+01   -.116E+01 0.172E+01 0.130E+01
   -.424E+02 -.722E+02 -.223E+03   0.410E+02 0.728E+02 0.225E+03   0.649E+00 0.163E+01 -.145E+01   0.116E+01 -.172E+01 0.130E+01
   0.424E+02 -.722E+02 0.223E+03   -.410E+02 0.728E+02 -.225E+03   -.649E+00 0.163E+01 0.145E+01   -.116E+01 -.172E+01 -.130E+01
 -----------------------------------------------------------------------------------------------
   0.322E-10 0.371E-10 -.937E-10   0.199E-12 0.284E-12 0.171E-12   0.000E+00 -.222E-15 0.000E+00   -.630E-11 -.642E-12 0.112E-11
 
 
 POSITION                                       TOTAL-FORCE (eV/Angst)
 -----------------------------------------------------------------------------------
      4.50668      0.00000      4.50962        -0.000000      0.000000      0.000000
      4.50668      4.52286      0.00000        -0.000000      0.000000      0.000000
      0.00000      4.52286      0.00000        -0.000000      0.000000      0.000000
      0.00000      0.00000      4.50962        -0.000000      0.000000      0.000000
      0.00000      4.52286      4.50962        -0.000000      0.000000      0.000000
      4.50668      0.00000      0.00000        -0.000000      0.000000      0.000000
      0.00000      0.00000      0.00000        -0.000000      0.000000      0.000000
      4.50668      4.52286      4.50962        -0.000000      0.000000      0.000000
      2.25334      2.26143      2.25481        -0.000000      0.000000      0.000000
      6.76002      6.78429      2.25481        -0.000000      0.000000      0.000000
      6.76002      2.26143      6.76443        -0.000000      0.000000      0.000000
      2.25334      6.78429      6.76443        -0.000000      0.000000     -0.000000
      6.76002      6.78429      6.76443        -0.000000      0.000000     -0.000000
      2.25334      2.26143      6.76443        -0.000000      0.000000      0.000000
      2.25334      6.78429      2.25481        -0.000000      0.000000     -0.000000
      6.76002      2.26143      2.25481        -0.000000      0.000000     -0.000000
      8.72238      1.86511      2.59469         1.582958     -0.569572      0.422807
      0.29098      7.18061      2.59469        -1.582958      0.569572      0.422807
      0.29098      1.86511      6.42455        -1.582958     -0.569572     -0.422807
      8.72238      7.18061      6.42455         1.582958      0.569572     -0.422807
      2.61034      8.74279      1.87660         0.340335      1.529961     -0.248171
      2.61034      0.30293      7.14263         0.340335     -1.529961      0.248171
      6.40303      0.30293      1.87660        -0.340335     -1.529961     -0.248171
      6.40303      8.74279      7.14263        -0.340335      1.529961      0.248171
      1.86868      2.62913      8.72027        -0.433978      0.562360      1.614417
      7.14468      2.62913      0.29896         0.433978      0.562360     -1.614417
      1.86868      6.41659      0.29896        -0.433978     -0.562360     -1.614417
      7.14468      6.41659      8.72027         0.433978     -0.562360      1.614417
      4.79767      2.65775      1.91493        -1.582958      0.569572     -0.422807
      4.21570      6.38796      1.91493         1.582958     -0.569572     -0.422807
      4.21570      2.65775      7.10430         1.582958      0.569572      0.422807
      4.79767      6.38796      7.10430        -1.582958     -0.569572      0.422807
      1.89634      4.82579      2.63302        -0.340335     -1.529961      0.248171
      1.89634      4.21993      6.38622        -0.340335      1.529961     -0.248171
      7.11702      4.21993      2.63302         0.340335      1.529961      0.248171
      7.11702      4.82579      6.38622         0.340335     -1.529961     -0.248171
      2.63800      1.89373      4.80858         0.433978     -0.562360     -1.614417
      6.37537      1.89373      4.21065        -0.433978     -0.562360      1.614417
      2.63800      7.15199      4.21065         0.433978      0.562360      1.614417
      6.37537      7.15199      4.80858        -0.433978      0.562360     -1.614417
 -----------------------------------------------------------------------------------
    total drift:                                0.000000      0.000000     -0.000000


--------------------------------------------------------------------------------------------------------



  FREE ENERGIE OF THE ION-ELECTRON SYSTEM (eV)
  ---------------------------------------------------
  free  energy   TOTEN  =      -258.14346206 eV

  energy  without entropy=     -258.14346206  energy(sigma->0) =     -258.14346206
 


--------------------------------------------------------------------------------------------------------


    POTLOK:  cpu time      0.0706: real time      0.0707


--------------------------------------------------------------------------------------------------------


 stress matrix after NEB project (eV)
   -227.24884      0.00000      0.00000
      0.00000   -231.73614      0.00000
      0.00000      0.00000   -226.36575
  FORCES: max atom, RMS     1.763782    1.314386
  FORCE total and by dimension    8.312910    1.614417
  Stress total and by dimension  395.708386  231.736138


--------------------------------------------------------------------------------------------------------


    WAVPRE:  cpu time      1.8681: real time      1.8751
    FEWALD:  cpu time      0.0024: real time      0.0024
    GENKIN:  cpu time      0.0165: real time      0.0165
    ORTHCH:  cpu time      0.4566: real time      0.4569
     LOOP+:  cpu time    164.8788: real time    165.0973
 -----------------------------------------------------------------------------
|                                                                             |
|           W    W    AA    RRRRR   N    N  II  N    N   GGGG   !!!           |
|           W    W   A  A   R    R  NN   N  II  NN   N  G    G  !!!           |
|           W    W  A    A  R    R  N N  N  II  N N  N  G       !!!           |
|           W WW W  AAAAAA  RRRRR   N  N N  II  N  N N  G  GGG   !            |
|           WW  WW  A    A  R   R   N   NN  II  N   NN  G    G                |
|           W    W  A    A  R    R  N    N  II  N    N   GGGG   !!!           |
|                                                                             |
|     Tetrahedron method does not include variations of the Fermi             |
|     occupations, so forces and stress will be inaccurate. We suggest        |
|     using a different smearing scheme ISMEAR = 1 or 2 for metals in         |
|     relaxations.                                                            |
|                                                                             |
 -----------------------------------------------------------------------------



--------------------------------------- Iteration      2(   1)  ---------------------------------------


 -----------------------------------------------------------------------------
|                                                                             |
|     EEEEEEE  RRRRRR   RRRRRR   OOOOOOO  RRRRRR      ###     ###     ###     |
|     E        R     R  R     R  O     O  R     R     ###     ###     ###     |
|     E        R     R  R     R  O     O  R     R     ###     ###     ###     |
|     EEEEE    RRRRRR   RRRRRR   O     O  RRRRRR       #       #       #      |
|     E        R   R    R   R    O     O  R   R                               |
|     E        R    R   R    R   O     O  R    R      ###     ###     ###     |
|     EEEEEEE  R     R  R     R  OOOOOOO  R     R     ###     ###     ###     |
|                                                                             |
|     ERROR FEXCF: supplied exchange-correlation table                        |
|      is too small, maximal index : 4115                                     |
|                                                                             |
|       ---->  I REFUSE TO CONTINUE WITH THIS SICK JOB ... BYE!!! <----       |
|                                                                             |
 -----------------------------------------------------------------------------

