 vasp.6.3.2 27Jun22 (build Jul  3 2023 11:46:21) complex                         
 executed on    LinuxNV_CrayMPICH date 2024.04.21  22:36:18
 running on    4 total cores
 distrk:  each k-point on    4 cores,    1 groups
 distr:  one band on NCORE=   1 cores,    4 groups


--------------------------------------------------------------------------------------------------------


 INCAR:
   ADDGRID = True
   ALGO = Normal
   EDIFF = 0.0002
   ENCUT = 520.0
   IBRION = -1
   ICHARG = 0
   ISIF = 3
   ISMEAR = -5
   ISPIN = 2
   KPOINT_BSE = -1 0 0 0
   LAECHG = True
   LASPH = True
   LCHARG = True
   LELF = True
   LORBIT = 11
   LREAL = Auto
   LVHAR = True
   LWAVE = False
   MAGMOM = 1*7.0 3*0.6
   NELM = 1000
   NSW = 0
   PREC = accurate
   SIGMA = 0.05

 POTCAR:    PAW_PBE Gd 23Dec2003                  
 POTCAR:    PAW_PBE Mg_pv 13Apr2007               
 POTCAR:    PAW_PBE Au 04Oct2007                  
 POTCAR:    PAW_PBE Gd 23Dec2003                  
   SHA256 =  58854b40b4643190560b0e2b62d2ab46bea96585f82c6231a0f4f44b8c3188dc Gd/POTCAR             
   COPYR  = (c) Copyright 23Dec2003 Georg Kresse                                                    
   COPYR  = This file is part of the software VASP. Any use, copying, and all other rights are regul
   COPYR  = If you do not have a valid VASP license, you may not use, copy or distribute this file. 
   VRHFIN =Gd : [core=Xe4]                                                                          
   LEXCH  = PE                                                                                      
   EATOM  =  3047.6032 eV,  223.9925 Ry                                                             
                                                                                                    
   TITEL  = PAW_PBE Gd 23Dec2003                                                                    
   LULTRA =        F    use ultrasoft PP ?                                                          
   IUNSCR =        1    unscreen: 0-lin 1-nonlin 2-no                                               
   RPACOR =    2.300    partial core radius                                                         
   POMASS =  157.250; ZVAL   =   18.000    mass and valenz                                          
   RCORE  =    2.800    outmost cutoff radius                                                       
   RWIGS  =    2.800; RWIGS  =    1.482    wigner-seitz radius (au A)                               
   ENMAX  =  256.472; ENMIN  =  192.354 eV                                                          
   RCLOC  =    2.316    cutoff for local pot                                                        
   LCOR   =        T    correct aug charges                                                         
   LPAW   =        T    paw PP                                                                      
   EAUG   =  537.243                                                                                
   DEXC   =    0.000                                                                                
   RMAX   =    2.857    core radius for proj-oper                                                   
   RAUG   =    1.300    factor for augmentation sphere                                              
   RDEP   =    2.921    radius for radial grids                                                     
   RDEPT  =    2.247    core radius for aug-charge                                                  
                                                                                                    
   Atomic configuration                                                                             
   14 entries                                                                                       
     n  l   j            E        occ.                                                              
     1  0  0.50    -50087.2354   2.0000                                                             
     2  0  0.50     -8269.2182   2.0000                                                             
     2  1  1.50     -7357.3672   6.0000                                                             
     3  0  0.50     -1833.2681   2.0000                                                             
     3  1  1.50     -1550.9376   6.0000                                                             
     3  2  2.50     -1178.7204  10.0000                                                             
     4  0  0.50      -369.2978   2.0000                                                             
     4  1  1.50      -276.2601   6.0000                                                             
     4  2  2.50      -147.6611  10.0000                                                             
     5  0  0.50       -49.7260   2.0000                                                             
     6  0  0.50        -4.1254   2.0000                                                             
     5  1  1.50       -27.2538   6.0000                                                             
     5  2  2.50        -2.5337   1.0000                                                             
     4  3  2.50        -8.7140   7.0000                                                             
   Description                                                                                      
     l       E           TYP  RCUT    TYP  RCUT                                                     
     0    -49.7259557     23  2.400                                                                 
     0     -4.1254107     23  2.400                                                                 
     1    -27.2537518     23  2.400                                                                 
     1     20.4087390     23  2.400                                                                 
     2     -2.5337329     23  2.500                                                                 
     2     13.6058260     23  2.500                                                                 
     3     -8.7140389     23  2.800                                                                 
     3     -9.5240782     23  2.800                                                                 
  local pseudopotential read in
  partial core-charges read in
  partial kinetic energy density read in
  atomic valenz-charges read in
  non local Contribution for L=            0  read in
    real space projection operators read in
  non local Contribution for L=            0  read in
    real space projection operators read in
  non local Contribution for L=            1  read in
    real space projection operators read in
  non local Contribution for L=            1  read in
    real space projection operators read in
  non local Contribution for L=            2  read in
    real space projection operators read in
  non local Contribution for L=            2  read in
    real space projection operators read in
  non local Contribution for L=            3  read in
    real space projection operators read in
  non local Contribution for L=            3  read in
    real space projection operators read in
    PAW grid and wavefunctions read in
 
   number of l-projection  operators is LMAX  =            8
   number of lm-projection operators is LMMAX =           32
 
 POTCAR:    PAW_PBE Mg_pv 13Apr2007               
   SHA256 =  f474ac0dd33840b9ae76c01d57fea79fdf77cdfbb07d5ade72c65f83c709b62b Mg_pv/POTCAR          
   COPYR  = (c) Copyright 13Apr2007 Georg Kresse                                                    
   COPYR  = This file is part of the software VASP. Any use, copying, and all other rights are regul
   COPYR  = If you do not have a valid VASP license, you may not use, copy or distribute this file. 
   VRHFIN =Mg: p6s2                                                                                 
   LEXCH  = PE                                                                                      
   EATOM  =  1056.7344 eV,   77.6678 Ry                                                             
                                                                                                    
   TITEL  = PAW_PBE Mg_pv 13Apr2007                                                                 
   LULTRA =        F    use ultrasoft PP ?                                                          
   IUNSCR =        1    unscreen: 0-lin 1-nonlin 2-no                                               
   RPACOR =    1.500    partial core radius                                                         
   POMASS =   24.305; ZVAL   =    8.000    mass and valenz                                          
   RCORE  =    2.000    outmost cutoff radius                                                       
   RWIGS  =    2.000; RWIGS  =    1.058    wigner-seitz radius (au A)                               
   ENMAX  =  403.929; ENMIN  =  302.947 eV                                                          
   RCLOC  =    1.506    cutoff for local pot                                                        
   LCOR   =        T    correct aug charges                                                         
   LPAW   =        T    paw PP                                                                      
   EAUG   =  758.780                                                                                
   DEXC   =    0.000                                                                                
   RMAX   =    2.045    core radius for proj-oper                                                   
   RAUG   =    1.300    factor for augmentation sphere                                              
   RDEP   =    2.025    radius for radial grids                                                     
   RDEPT  =    1.557    core radius for aug-charge                                                  
                                                                                                    
   Atomic configuration                                                                             
    5 entries                                                                                       
     n  l   j            E        occ.                                                              
     1  0  0.50     -1259.6230   2.0000                                                             
     2  0  0.50       -79.8442   2.0000                                                             
     2  1  1.50       -46.6121   6.0000                                                             
     3  0  0.50        -4.7055   2.0000                                                             
     3  2  1.50        -1.3606   0.0000                                                             
   Description                                                                                      
     l       E           TYP  RCUT    TYP  RCUT                                                     
     1    -46.6121073     23  1.600                                                                 
     1      2.7211652     23  1.600                                                                 
     0     -4.7054661     23  2.000                                                                 
     0     61.2262170     23  2.000                                                                 
     2     -1.3605826     23  2.000                                                                 
  local pseudopotential read in
  partial core-charges read in
  partial kinetic energy density read in
  atomic valenz-charges read in
  non local Contribution for L=            1  read in
    real space projection operators read in
  non local Contribution for L=            1  read in
    real space projection operators read in
  non local Contribution for L=            0  read in
    real space projection operators read in
  non local Contribution for L=            0  read in
    real space projection operators read in
  non local Contribution for L=            2  read in
    real space projection operators read in
    PAW grid and wavefunctions read in
 
   number of l-projection  operators is LMAX  =            5
   number of lm-projection operators is LMMAX =           13
 
 POTCAR:    PAW_PBE Au 04Oct2007                  
   SHA256 =  d0044ae04e2bdce24051b198fc5c053d722a5bc6fe3c3b100514a13fc5d2db88 Au/POTCAR             
   COPYR  = (c) Copyright 04Oct2007 Georg Kresse                                                    
   COPYR  = This file is part of the software VASP. Any use, copying, and all other rights are regul
   COPYR  = If you do not have a valid VASP license, you may not use, copy or distribute this file. 
   VRHFIN =Au: s1d10                                                                                
   LEXCH  = PE                                                                                      
   EATOM  =   926.0867 eV,   68.0654 Ry                                                             
                                                                                                    
   TITEL  = PAW_PBE Au 04Oct2007                                                                    
   LULTRA =        F    use ultrasoft PP ?                                                          
   IUNSCR =        1    unscreen: 0-lin 1-nonlin 2-no                                               
   RPACOR =    2.330    partial core radius                                                         
   POMASS =  196.966; ZVAL   =   11.000    mass and valenz                                          
   RCORE  =    2.500    outmost cutoff radius                                                       
   RWIGS  =    2.840; RWIGS  =    1.503    wigner-seitz radius (au A)                               
   ENMAX  =  229.943; ENMIN  =  172.457 eV                                                          
   ICORE  =        3    local potential                                                             
   LCOR   =        T    correct aug charges                                                         
   LPAW   =        T    paw PP                                                                      
   EAUG   =  356.670                                                                                
   DEXC   =    0.000                                                                                
   RMAX   =    2.562    core radius for proj-oper                                                   
   RAUG   =    1.300    factor for augmentation sphere                                              
   RDEP   =    2.598    radius for radial grids                                                     
   RDEPT  =    2.193    core radius for aug-charge                                                  
                                                                                                    
   Atomic configuration                                                                             
   16 entries                                                                                       
     n  l   j            E        occ.                                                              
     1  0  0.50    -80748.5001   2.0000                                                             
     2  0  0.50    -14244.7466   2.0000                                                             
     2  1  1.50    -12310.9591   6.0000                                                             
     3  0  0.50     -3362.1768   2.0000                                                             
     3  1  1.50     -2801.5463   6.0000                                                             
     3  2  2.50     -2203.8206  10.0000                                                             
     4  0  0.50      -729.8168   2.0000                                                             
     4  1  1.50      -546.0527   6.0000                                                             
     4  2  2.50      -325.7302  10.0000                                                             
     4  3  3.50       -81.1472  14.0000                                                             
     5  0  0.50      -108.3201   2.0000                                                             
     5  1  1.50       -59.7479   6.0000                                                             
     5  2  2.50        -6.8783  10.0000                                                             
     6  0  0.50        -5.7602   1.0000                                                             
     6  1  1.50        -6.8029   0.0000                                                             
     5  3  2.50        -1.3606   0.0000                                                             
   Description                                                                                      
     l       E           TYP  RCUT    TYP  RCUT                                                     
     2     -6.8782861     23  2.500                                                                 
     2     -8.2388687     23  2.500                                                                 
     0     -5.7601759     23  2.500                                                                 
     0     -0.8493231     23  2.500                                                                 
     1     -2.7211652     23  2.500                                                                 
     1     27.2116520     23  2.500                                                                 
     3     -1.3605826     23  2.500                                                                 
  local pseudopotential read in
  partial core-charges read in
  partial kinetic energy density read in
  atomic valenz-charges read in
  non local Contribution for L=            2  read in
    real space projection operators read in
  non local Contribution for L=            2  read in
    real space projection operators read in
  non local Contribution for L=            0  read in
    real space projection operators read in
  non local Contribution for L=            0  read in
    real space projection operators read in
  non local Contribution for L=            1  read in
    real space projection operators read in
  non local Contribution for L=            1  read in
    real space projection operators read in
    PAW grid and wavefunctions read in
 
   number of l-projection  operators is LMAX  =            6
   number of lm-projection operators is LMMAX =           18
 
 -----------------------------------------------------------------------------
|                                                                             |
|               ----> ADVICE to this user running VASP <----                  |
|                                                                             |
|     You have a (more or less) 'small supercell' and for smaller cells       |
|     it is recommended to use the reciprocal-space projection scheme!        |
|     The real-space optimization is not efficient for small cells and it     |
|     is also less accurate ...                                               |
|     Therefore, set LREAL=.FALSE. in the INCAR file.                         |
|                                                                             |
 -----------------------------------------------------------------------------

 Optimization of the real space projectors (new method)

 maximal supplied QI-value         = 13.42
 optimisation between [QCUT,QGAM] = [ 11.67, 23.35] = [ 38.16,152.62] Ry 
 Optimized for a Real-space Cutoff    1.63 Angstroem

   l    n(q)    QCUT    max X(q) W(low)/X(q) W(high)/X(q)  e(spline) 
   0     11    11.673    10.501    0.14E-04    0.17E-05    0.21E-07
   0     11    11.673     9.148    0.21E-04    0.32E-05    0.45E-07
   1     11    11.673     4.035    0.33E-05    0.11E-04    0.84E-07
   1     11    11.673     4.388    0.11E-04    0.47E-04    0.34E-06
   2     10    11.673    20.656    0.12E-04    0.28E-04    0.54E-06
   2     10    11.673    12.651    0.11E-04    0.26E-04    0.51E-06
   3     10    11.673    61.921    0.19E-03    0.22E-03    0.23E-06
   3     10    11.673    48.328    0.20E-03    0.23E-03    0.23E-06
 Optimization of the real space projectors (new method)

 maximal supplied QI-value         = 18.90
 optimisation between [QCUT,QGAM] = [ 11.53, 23.24] = [ 37.21,151.29] Ry 
 Optimized for a Real-space Cutoff    1.28 Angstroem

   l    n(q)    QCUT    max X(q) W(low)/X(q) W(high)/X(q)  e(spline) 
   1      8    11.527     2.974    0.44E-04    0.56E-04    0.12E-06
   1      8    11.527     4.279    0.12E-03    0.12E-03    0.26E-06
   0      9    11.527    16.381    0.46E-04    0.64E-04    0.78E-07
   0      9    11.527     5.611    0.26E-04    0.43E-04    0.55E-07
   2      8    11.527     4.652    0.22E-03    0.72E-04    0.47E-07
 Optimization of the real space projectors (new method)

 maximal supplied QI-value         = 15.12
 optimisation between [QCUT,QGAM] = [ 11.64, 23.28] = [ 37.95,151.78] Ry 
 Optimized for a Real-space Cutoff    1.49 Angstroem

   l    n(q)    QCUT    max X(q) W(low)/X(q) W(high)/X(q)  e(spline) 
   2      9    11.641    60.898    0.24E-03    0.10E-03    0.19E-06
   2      9    11.641    58.894    0.25E-03    0.10E-03    0.19E-06
   0     10    11.641   109.617    0.73E-04    0.33E-04    0.11E-06
   0     10    11.641    75.026    0.71E-04    0.32E-04    0.11E-06
   1     10    11.641    16.344    0.27E-04    0.97E-04    0.16E-06
   1     10    11.641    10.160    0.23E-04    0.77E-04    0.13E-06
  PAW_PBE Gd 23Dec2003                  :
 energy of atom  1       EATOM=-3047.6032
 kinetic energy error for atom=    0.0019 (will be added to EATOM!!)
  PAW_PBE Mg_pv 13Apr2007               :
 energy of atom  2       EATOM=-1056.7344
 kinetic energy error for atom=    0.0340 (will be added to EATOM!!)
  PAW_PBE Au 04Oct2007                  :
 energy of atom  3       EATOM= -926.0867
 kinetic energy error for atom=    0.0034 (will be added to EATOM!!)
 
 
 POSCAR: Gd1 Mg1 Au2
  positions in direct lattice
  No initial velocities read in
 exchange correlation table for  LEXCH =        8
   RHO(1)=    0.500       N(1)  =     2000
   RHO(2)=  100.500       N(2)  =     4000

 VTST: version 4.2, (08/11/21)

 CHAIN: initializing optimizer
 
 OPT: Using VASP Dynamics algorithm
 CHAIN: Read ICHAIN             0
 
 POSCAR: Gd1 Mg1 Au2
  positions in direct lattice
  No initial velocities read in
 


--------------------------------------------------------------------------------------------------------


 ion  position               nearest neighbor table
   1  0.500  0.500  0.500-   4 3.03   3 3.03   4 3.03   3 3.03   4 3.03   3 3.03   3 3.03   4 3.03

   2  0.000  0.000  0.000-   3 3.03   4 3.03   3 3.03   3 3.03   4 3.03   4 3.03   4 3.03   3 3.03

   3  0.750  0.750  0.750-   1 3.03   2 3.03   1 3.03   1 3.03   2 3.03   2 3.03   2 3.03   1 3.03
                             4 3.50   4 3.50   4 3.50   4 3.50   4 3.50   4 3.50
   4  0.250  0.250  0.250-   2 3.03   1 3.03   2 3.03   1 3.03   2 3.03   1 3.03   1 3.03   2 3.03
                             3 3.50   3 3.50   3 3.50   3 3.50   3 3.50   3 3.50
 
  LATTYP: Found a face centered cubic cell.
 ALAT       =     7.0063540000
  
  Lattice vectors:
  
 A1 = (   0.0000000000,   3.5031770000,   3.5031770000)
 A2 = (   3.5031770000,   0.0000000000,   3.5031770000)
 A3 = (   3.5031770000,   3.5031770000,   0.0000000000)


Analysis of symmetry for initial positions (statically):
=====================================================================
 Subroutine PRICEL returns:
 Original cell was already a primitive cell.
 

 Routine SETGRP: Setting up the symmetry group for a 
 face centered cubic supercell.


 Subroutine GETGRP returns: Found 48 space group operations
 (whereof 48 operations were pure point group operations)
 out of a pool of 48 trial point group operations.


The static configuration has the point symmetry O_h .


Analysis of symmetry for dynamics (positions and initial velocities):
=====================================================================
 Subroutine PRICEL returns:
 Original cell was already a primitive cell.
 

 Routine SETGRP: Setting up the symmetry group for a 
 face centered cubic supercell.


 Subroutine GETGRP returns: Found 48 space group operations
 (whereof 48 operations were pure point group operations)
 out of a pool of 48 trial point group operations.


The dynamic configuration has the point symmetry O_h .


Analysis of structural, dynamic, and magnetic symmetry:
=====================================================================
 Subroutine PRICEL returns:
 Original cell was already a primitive cell.
 

 Routine SETGRP: Setting up the symmetry group for a 
 face centered cubic supercell.


 Subroutine GETGRP returns: Found 48 space group operations
 (whereof 48 operations were pure point group operations)
 out of a pool of 48 trial point group operations.


The overall configuration has the point symmetry O_h .


 Subroutine INISYM returns: Found 48 space group operations
 (whereof 48 operations are pure point group operations),
 and found     1 'primitive' translations


----------------------------------------------------------------------------------------

                                     Primitive cell                                     

  volume of cell :      85.9837

  direct lattice vectors                    reciprocal lattice vectors
     0.000000000  3.503177000  3.503177000    -0.142727587  0.142727587  0.142727587
     3.503177000  0.000000000  3.503177000     0.142727587 -0.142727587  0.142727587
     3.503177000  3.503177000  0.000000000     0.142727587  0.142727587 -0.142727587

  length of vectors
     4.954240425  4.954240425  4.954240425     0.247211432  0.247211432  0.247211432

  position of ions in fractional coordinates (direct lattice)
     0.500000000  0.500000000  0.500000000
     0.000000000  0.000000000  0.000000000
     0.750000000  0.750000000  0.750000000
     0.250000000  0.250000000  0.250000000

  ion indices of the primitive-cell ions
   primitive index   ion index
                 1           1
                 2           2
                 3           3
                 4           4

----------------------------------------------------------------------------------------

 
 
 KPOINTS: Kpoints from vasprun.xml                

Automatic generation of k-mesh.
 Grid dimensions read from file:
 generate k-points for:    6    6    6

 Generating k-lattice:

  Cartesian coordinates                     Fractional coordinates (reciprocal lattice)
    -0.023787931  0.023787931  0.023787931     0.166666667  0.000000000  0.000000000
     0.023787931 -0.023787931  0.023787931     0.000000000  0.166666667 -0.000000000
     0.023787931  0.023787931 -0.023787931    -0.000000000 -0.000000000  0.166666667

  Length of vectors
     0.041201905  0.041201905  0.041201905

  Shift w.r.t. Gamma in fractional coordinates (k-lattice)
     0.000000000  0.000000000  0.000000000

 TETIRR: Found     35 inequivalent tetrahedra from     1296
 
 Subroutine IBZKPT returns following result:
 ===========================================
 
 Found     16 irreducible k-points:
 
 Following reciprocal coordinates:
            Coordinates               Weight
  0.000000  0.000000  0.000000      1.000000
  0.166667  0.000000  0.000000      8.000000
  0.333333  0.000000  0.000000      8.000000
  0.500000  0.000000  0.000000      4.000000
  0.166667  0.166667  0.000000      6.000000
  0.333333  0.166667  0.000000     24.000000
  0.500000  0.166667  0.000000     24.000000
 -0.333333  0.166667  0.000000     24.000000
 -0.166667  0.166667  0.000000     12.000000
  0.333333  0.333333  0.000000      6.000000
  0.500000  0.333333  0.000000     24.000000
 -0.333333  0.333333  0.000000     12.000000
  0.500000  0.500000  0.000000      3.000000
  0.500000  0.333333  0.166667     24.000000
 -0.333333  0.333333  0.166667     24.000000
 -0.333333  0.500000  0.166667     12.000000
 
 Following cartesian coordinates:
            Coordinates               Weight
  0.000000  0.000000  0.000000      1.000000
 -0.023788  0.023788  0.023788      8.000000
 -0.047576  0.047576  0.047576      8.000000
 -0.071364  0.071364  0.071364      4.000000
  0.000000  0.000000  0.047576      6.000000
 -0.023788  0.023788  0.071364     24.000000
 -0.047576  0.047576  0.095152     24.000000
  0.071364 -0.071364 -0.023788     24.000000
  0.047576 -0.047576  0.000000     12.000000
  0.000000  0.000000  0.095152      6.000000
 -0.023788  0.023788  0.118940     24.000000
  0.095152 -0.095152  0.000000     12.000000
  0.000000  0.000000  0.142728      3.000000
  0.000000  0.047576  0.095152     24.000000
  0.118940 -0.071364 -0.023788     24.000000
  0.142728 -0.095152  0.000000     12.000000
 


--------------------------------------------------------------------------------------------------------




 Dimension of arrays:
   k-points           NKPTS =     16   k-points in BZ     NKDIM =     16   number of bands    NBANDS=     32
   number of dos      NEDOS =    301   number of ions     NIONS =      4
   non local maximal  LDIM  =      8   non local SUM 2l+1 LMDIM =     32
   total plane-waves  NPLWV =  64000
   max r-space proj   IRMAX =  13483   max aug-charges    IRDMAX= 364300
   dimension x,y,z NGX =    40 NGY =   40 NGZ =   40
   dimension x,y,z NGXF=    80 NGYF=   80 NGZF=   80
   support grid    NGXF=   160 NGYF=  160 NGZF=  160
   ions per type =               1   1   2
   NGX,Y,Z   is equivalent  to a cutoff of  13.42, 13.42, 13.42 a.u.
   NGXF,Y,Z  is equivalent  to a cutoff of  26.85, 26.85, 26.85 a.u.

 SYSTEM =  unknown system                          
 POSCAR =  Gd1 Mg1 Au2                             

 Startparameter for this run:
   NWRITE =      2    write-flag & timer
   PREC   = accura    normal or accurate (medium, high low for compatibility)
   ISTART =      0    job   : 0-new  1-cont  2-samecut
   ICHARG =      0    charge: 1-file 2-atom 10-const
   ISPIN  =      2    spin polarized calculation?
   LNONCOLLINEAR =      F non collinear calculations
   LSORBIT =      F    spin-orbit coupling
   INIWAV =      1    electr: 0-lowe 1-rand  2-diag
   LASPH  =      T    aspherical Exc in radial PAW
 Electronic Relaxation 1
   ENCUT  =  520.0 eV  38.22 Ry    6.18 a.u.   9.21  9.21  9.21*2*pi/ulx,y,z
   ENINI  =  520.0     initial cutoff
   ENAUG  =  758.8 eV  augmentation charge cutoff
   NELM   =   1000;   NELMIN=  2; NELMDL= -5     # of ELM steps 
   EDIFF  = 0.2E-03   stopping-criterion for ELM
   LREAL  =      T    real-space projection
   NLSPLINE    = F    spline interpolate recip. space projectors
   LCOMPAT=      F    compatible to vasp.4.4
   GGA_COMPAT  = T    GGA compatible to vasp.4.4-vasp.4.6
   LMAXPAW     = -100 max onsite density
   LMAXMIX     =    2 max onsite mixed and CHGCAR
   VOSKOWN=      0    Vosko Wilk Nusair interpolation
   ROPT   =   -0.00025  -0.00025  -0.00025
 Ionic relaxation
   EDIFFG = 0.2E-02   stopping-criterion for IOM
   NSW    =      0    number of steps for IOM
   NBLOCK =      1;   KBLOCK =      1    inner block; outer block 
   IBRION =     -1    ionic relax: 0-MD 1-quasi-New 2-CG
   NFREE  =      0    steps in history (QN), initial steepest desc. (CG)
   ISIF   =      3    stress and relaxation
   IWAVPR =     10    prediction:  0-non 1-charg 2-wave 3-comb
   ISYM   =      2    0-nonsym 1-usesym 2-fastsym
   LCORR  =      T    Harris-Foulkes like correction to forces

   POTIM  = 0.5000    time-step for ionic-motion
   TEIN   =    0.0    initial temperature
   TEBEG  =    0.0;   TEEND  =   0.0 temperature during run
   SMASS  =  -3.00    Nose mass-parameter (am)
   estimated Nose-frequenzy (Omega)   =  0.10E-29 period in steps = 0.13E+47 mass=  -0.561E-27a.u.
   SCALEE = 1.0000    scale energy and forces
   NPACO  =    256;   APACO  = 10.0  distance and # of slots for P.C.
   PSTRESS=    0.0 pullay stress

  Mass of Ions in am
   POMASS = 157.25 24.30196.97
  Ionic Valenz
   ZVAL   =  18.00  8.00 11.00
  Atomic Wigner-Seitz radii
   RWIGS  =  -1.00 -1.00 -1.00
  virtual crystal weights 
   VCA    =   1.00  1.00  1.00
   NELECT =      48.0000    total number of electrons
   NUPDOWN=      -1.0000    fix difference up-down

 DOS related values:
   EMIN   =  10.00;   EMAX   =-10.00  energy-range for DOS
   EFERMI =   0.00
   ISMEAR =    -5;   SIGMA  =   0.05  broadening in eV -4-tet -1-fermi 0-gaus

 Electronic relaxation 2 (details)
   IALGO  =     38    algorithm
   LDIAG  =      T    sub-space diagonalisation (order eigenvalues)
   LSUBROT=      F    optimize rotation matrix (better conditioning)
   TURBO    =      0    0=normal 1=particle mesh
   IRESTART =      0    0=no restart 2=restart with 2 vectors
   NREBOOT  =      0    no. of reboots
   NMIN     =      0    reboot dimension
   EREF     =   0.00    reference energy to select bands
   IMIX   =      4    mixing-type and parameters
     AMIX     =   0.40;   BMIX     =  1.00
     AMIX_MAG =   1.60;   BMIX_MAG =  1.00
     AMIN     =   0.10
     WC   =   100.;   INIMIX=   1;  MIXPRE=   1;  MAXMIX= -45

 Intra band minimization:
   WEIMIN = 0.0000     energy-eigenvalue tresh-hold
   EBREAK =  0.16E-05  absolut break condition
   DEPER  =   0.30     relativ break condition  

   TIME   =   0.40     timestep for ELM

  volume/ion in A,a.u.               =      21.50       145.06
  Fermi-wavevector in a.u.,A,eV,Ry     =   1.347979  2.547311 24.722435  1.817048
  Thomas-Fermi vector in A             =   2.475686
 
 Write flags
   LWAVE        =      F    write WAVECAR
   LDOWNSAMPLE  =      F    k-point downsampling of WAVECAR
   LCHARG       =      T    write CHGCAR
   LVTOT        =      F    write LOCPOT, total local potential
   LVHAR        =      T    write LOCPOT, Hartree potential only
   LELF         =      T    write electronic localiz. function (ELF)
   LORBIT       =     11    0 simple, 1 ext, 2 COOP (PROOUT), +10 PAW based schemes


 Dipole corrections
   LMONO  =      F    monopole corrections only (constant potential shift)
   LDIPOL =      F    correct potential (dipole corrections)
   IDIPOL =      0    1-x, 2-y, 3-z, 4-all directions 
   EPSILON=  1.0000000 bulk dielectric constant

 Exchange correlation treatment:
   GGA     =    --    GGA type
   LEXCH   =     8    internal setting for exchange type
   LIBXC   =     F    Libxc                    
   VOSKOWN =     0    Vosko Wilk Nusair interpolation
   LHFCALC =     F    Hartree Fock is set to
   LHFONE  =     F    Hartree Fock one center treatment
   AEXX    =    0.0000 exact exchange contribution

 Linear response parameters
   LEPSILON=     F    determine dielectric tensor
   LRPA    =     F    only Hartree local field effects (RPA)
   LNABLA  =     F    use nabla operator in PAW spheres
   LVEL    =     F    velocity operator in full k-point grid
   CSHIFT  =0.1000    complex shift for real part using Kramers Kronig
   OMEGAMAX=  -1.0    maximum frequency
   DEG_THRESHOLD= 0.2000000E-02 threshold for treating states as degnerate
   RTIME   =   -0.100 relaxation time in fs
  (WPLASMAI=    0.000 imaginary part of plasma frequency in eV, 0.658/RTIME)
   DFIELD  = 0.0000000 0.0000000 0.0000000 field for delta impulse in time
 
  Optional k-point grid parameters
   LKPOINTS_OPT  =     F    use optional k-point grid
   KPOINTS_OPT_MODE=     1    mode for optional k-point grid
 
 Orbital magnetization related:
   ORBITALMAG=     F  switch on orbital magnetization
   LCHIMAG   =     F  perturbation theory with respect to B field
   DQ        =  0.001000  dq finite difference perturbation B field
   LLRAUG    =     F  two centre corrections for induced B field



--------------------------------------------------------------------------------------------------------


 Static calculation
 charge density and potential will be updated during run
 spin polarized calculation
 Variant of blocked Davidson
 Davidson routine will perform the subspace rotation
 perform sub-space diagonalisation
    after iterative eigenvector-optimisation
 modified Broyden-mixing scheme, WC =      100.0
 initial mixing is a Kerker type mixing with AMIX =  0.4000 and BMIX =      1.0000
 Hartree-type preconditioning will be used
 using additional bands             8
 real space projection scheme for non local part
 use partial core corrections
 calculate Harris-corrections to forces 
   (improved forces if not selfconsistent)
 use gradient corrections 
 use of overlap-Matrix (Vanderbilt PP)
 Fermi weights with tetrahedron method with Bloechl corrections


--------------------------------------------------------------------------------------------------------


  energy-cutoff  :      520.00
  volume of cell :       85.98
      direct lattice vectors                 reciprocal lattice vectors
     0.000000000  3.503177000  3.503177000    -0.142727587  0.142727587  0.142727587
     3.503177000  0.000000000  3.503177000     0.142727587 -0.142727587  0.142727587
     3.503177000  3.503177000  0.000000000     0.142727587  0.142727587 -0.142727587

  length of vectors
     4.954240425  4.954240425  4.954240425     0.247211432  0.247211432  0.247211432


 
 k-points in units of 2pi/SCALE and weight: Kpoints from vasprun.xml                
   0.00000000  0.00000000  0.00000000       0.005
  -0.02378793  0.02378793  0.02378793       0.037
  -0.04757586  0.04757586  0.04757586       0.037
  -0.07136379  0.07136379  0.07136379       0.019
   0.00000000  0.00000000  0.04757586       0.028
  -0.02378793  0.02378793  0.07136379       0.111
  -0.04757586  0.04757586  0.09515172       0.111
   0.07136379 -0.07136379 -0.02378793       0.111
   0.04757586 -0.04757586  0.00000000       0.056
   0.00000000  0.00000000  0.09515172       0.028
  -0.02378793  0.02378793  0.11893966       0.111
   0.09515172 -0.09515172  0.00000000       0.056
   0.00000000  0.00000000  0.14272759       0.014
   0.00000000  0.04757586  0.09515172       0.111
   0.11893966 -0.07136379 -0.02378793       0.111
   0.14272759 -0.09515172  0.00000000       0.056
 
 k-points in reciprocal lattice and weights: Kpoints from vasprun.xml                
   0.00000000  0.00000000  0.00000000       0.005
   0.16666667  0.00000000  0.00000000       0.037
   0.33333333  0.00000000  0.00000000       0.037
   0.50000000  0.00000000  0.00000000       0.019
   0.16666667  0.16666667  0.00000000       0.028
   0.33333333  0.16666667  0.00000000       0.111
   0.50000000  0.16666667  0.00000000       0.111
  -0.33333333  0.16666667  0.00000000       0.111
  -0.16666667  0.16666667  0.00000000       0.056
   0.33333333  0.33333333  0.00000000       0.028
   0.50000000  0.33333333  0.00000000       0.111
  -0.33333333  0.33333333  0.00000000       0.056
   0.50000000  0.50000000  0.00000000       0.014
   0.50000000  0.33333333  0.16666667       0.111
  -0.33333333  0.33333333  0.16666667       0.111
  -0.33333333  0.50000000  0.16666667       0.056
 
 position of ions in fractional coordinates (direct lattice) 
   0.50000000  0.50000000  0.50000000
   0.00000000  0.00000000  0.00000000
   0.75000000  0.75000000  0.75000000
   0.25000000  0.25000000  0.25000000
 
 position of ions in cartesian coordinates  (Angst):
   3.50317700  3.50317700  3.50317700
   0.00000000  0.00000000  0.00000000
   5.25476550  5.25476550  5.25476550
   1.75158850  1.75158850  1.75158850
 


--------------------------------------------------------------------------------------------------------


 k-point   1 :   0.0000 0.0000 0.0000  plane waves:    2277
 k-point   2 :   0.1667 0.0000 0.0000  plane waves:    2307
 k-point   3 :   0.3333 0.0000 0.0000  plane waves:    2331
 k-point   4 :   0.5000 0.0000 0.0000  plane waves:    2332
 k-point   5 :   0.1667 0.1667 0.0000  plane waves:    2309
 k-point   6 :   0.3333 0.1667 0.0000  plane waves:    2320
 k-point   7 :   0.5000 0.1667 0.0000  plane waves:    2318
 k-point   8 :  -0.3333 0.1667 0.0000  plane waves:    2317
 k-point   9 :  -0.1667 0.1667 0.0000  plane waves:    2309
 k-point  10 :   0.3333 0.3333 0.0000  plane waves:    2297
 k-point  11 :   0.5000 0.3333 0.0000  plane waves:    2322
 k-point  12 :  -0.3333 0.3333 0.0000  plane waves:    2315
 k-point  13 :   0.5000 0.5000 0.0000  plane waves:    2298
 k-point  14 :   0.5000 0.3333 0.1667  plane waves:    2318
 k-point  15 :  -0.3333 0.3333 0.1667  plane waves:    2314
 k-point  16 :  -0.3333 0.5000 0.1667  plane waves:    2318

 maximum and minimum number of plane-waves per node :      2332     2277

 maximum number of plane-waves:      2332
 maximum index in each direction: 
   IXMAX=    9   IYMAX=    9   IZMAX=    9
   IXMIN=   -9   IYMIN=   -9   IZMIN=   -9


 serial   3D FFT for wavefunctions
 parallel 3D FFT for charge:
    minimum data exchange during FFTs selected (reduces bandwidth)


 total amount of memory used by VASP MPI-rank0    84613. kBytes
=======================================================================

   base      :      30000. kBytes
   nonlr-proj:       8507. kBytes
   fftplans  :      19153. kBytes
   grid      :      16665. kBytes
   one-center:        393. kBytes
   wavefun   :       9895. kBytes
 
     INWAV:  cpu time      0.0001: real time      0.0004
 Broyden mixing: mesh for mixing (old mesh)
   NGX = 19   NGY = 19   NGZ = 19
  (NGX  = 80   NGY  = 80   NGZ  = 80)
  gives a total of   6859 points

 charge density for first step will be calculated from the start-wavefunctions


--------------------------------------------------------------------------------------------------------


 Maximum index for non-local projection operator         13067
 Maximum index for augmentation-charges         88195 (set IRDMAX)


--------------------------------------------------------------------------------------------------------


 initial charge from wavefunction
 First call to EWALD:  gamma=   0.402
 Maximum number of real-space cells 3x 3x 3
 Maximum number of reciprocal cells 3x 3x 3

    FEWALD:  cpu time      0.0005: real time      0.0005


--------------------------------------- Iteration      1(   1)  ---------------------------------------


    POTLOK:  cpu time      0.0987: real time      0.1882
    SETDIJ:  cpu time      1.0138: real time      1.0148
     EDDAV:  cpu time      1.3517: real time      1.3567
 BZINTS: Fermi energy:   -8.060217;   48.000000 electrons
         Band energy:-0.238524E+04;  BLOECHL correction:    0.000000
       DOS:  cpu time      0.0096: real time      0.0096
    --------------------------------------------
      LOOP:  cpu time      2.4738: real time      2.5692

 eigenvalue-minimisations  :  3400
 total energy-change (2. order) :-0.8506386E+03  (-0.3841113E+04)
 number of electron      48.0000000 magnetization       0.0000000
 augmentation part        4.6705950 magnetization       0.1058997

 Free energy of the ion-electron system (eV)
  ---------------------------------------------------
  alpha Z        PSCENC =       334.25025485
  Ewald energy   TEWEN  =     -4504.52196666
  -Hartree energ DENC   =      -231.14437883
  -exchange      EXHF   =         0.00000000
  -V(xc)+E(xc)   XCENC  =       106.31749593
  PAW double counting   =     54910.70869286   -55037.47955804
  entropy T*S    EENTRO =         0.00000000
  eigenvalues    EBANDS =     -2385.23745523
  atomic energy  EATOM  =      5956.46831764
  Solvation  Ediel_sol  =         0.00000000
  ---------------------------------------------------
  free energy    TOTEN  =      -850.63859747 eV

  energy without entropy =     -850.63859747  energy(sigma->0) =     -850.63859747


--------------------------------------------------------------------------------------------------------




--------------------------------------- Iteration      1(   2)  ---------------------------------------


     EDDAV:  cpu time      0.9806: real time      0.9824
 BZINTS: Fermi energy:  -31.985158;   48.000000 electrons
         Band energy:-0.289253E+04;  BLOECHL correction:   -0.000000
       DOS:  cpu time      0.0079: real time      0.0079
    --------------------------------------------
      LOOP:  cpu time      0.9885: real time      0.9903

 eigenvalue-minimisations  :  2376
 total energy-change (2. order) :-0.5072888E+03  (-0.4993107E+03)
 number of electron      48.0000000 magnetization       0.0000000
 augmentation part        4.6705950 magnetization       0.1058997

 Free energy of the ion-electron system (eV)
  ---------------------------------------------------
  alpha Z        PSCENC =       334.25025485
  Ewald energy   TEWEN  =     -4504.52196666
  -Hartree energ DENC   =      -231.14437883
  -exchange      EXHF   =         0.00000000
  -V(xc)+E(xc)   XCENC  =       106.31749593
  PAW double counting   =     54910.70869286   -55037.47955804
  entropy T*S    EENTRO =         0.00000000
  eigenvalues    EBANDS =     -2892.52625204
  atomic energy  EATOM  =      5956.46831764
  Solvation  Ediel_sol  =         0.00000000
  ---------------------------------------------------
  free energy    TOTEN  =     -1357.92739429 eV

  energy without entropy =    -1357.92739429  energy(sigma->0) =    -1357.92739429


--------------------------------------------------------------------------------------------------------




--------------------------------------- Iteration      1(   3)  ---------------------------------------


     EDDAV:  cpu time      1.2221: real time      1.2241
 BZINTS: Fermi energy:  -35.521760;   48.000000 electrons
         Band energy:-0.294831E+04;  BLOECHL correction:    0.000000
       DOS:  cpu time      0.0063: real time      0.0063
    --------------------------------------------
      LOOP:  cpu time      1.2284: real time      1.2304

 eigenvalue-minimisations  :  3104
 total energy-change (2. order) :-0.5578023E+02  (-0.5551329E+02)
 number of electron      48.0000000 magnetization       0.0000000
 augmentation part        4.6705950 magnetization       0.1058997

 Free energy of the ion-electron system (eV)
  ---------------------------------------------------
  alpha Z        PSCENC =       334.25025485
  Ewald energy   TEWEN  =     -4504.52196666
  -Hartree energ DENC   =      -231.14437883
  -exchange      EXHF   =         0.00000000
  -V(xc)+E(xc)   XCENC  =       106.31749593
  PAW double counting   =     54910.70869286   -55037.47955804
  entropy T*S    EENTRO =         0.00000000
  eigenvalues    EBANDS =     -2948.30647905
  atomic energy  EATOM  =      5956.46831764
  Solvation  Ediel_sol  =         0.00000000
  ---------------------------------------------------
  free energy    TOTEN  =     -1413.70762130 eV

  energy without entropy =    -1413.70762130  energy(sigma->0) =    -1413.70762130


--------------------------------------------------------------------------------------------------------




--------------------------------------- Iteration      1(   4)  ---------------------------------------


     EDDAV:  cpu time      1.1995: real time      1.2011
 BZINTS: Fermi energy:  -35.559554;   48.000000 electrons
         Band energy:-0.295475E+04;  BLOECHL correction:    0.000000
       DOS:  cpu time      0.0054: real time      0.0054
    --------------------------------------------
      LOOP:  cpu time      1.2049: real time      1.2065

 eigenvalue-minimisations  :  3080
 total energy-change (2. order) :-0.6442017E+01  (-0.6381264E+01)
 number of electron      48.0000000 magnetization       0.0000000
 augmentation part        4.6705950 magnetization       0.1058997

 Free energy of the ion-electron system (eV)
  ---------------------------------------------------
  alpha Z        PSCENC =       334.25025485
  Ewald energy   TEWEN  =     -4504.52196666
  -Hartree energ DENC   =      -231.14437883
  -exchange      EXHF   =         0.00000000
  -V(xc)+E(xc)   XCENC  =       106.31749593
  PAW double counting   =     54910.70869286   -55037.47955804
  entropy T*S    EENTRO =         0.00000000
  eigenvalues    EBANDS =     -2954.74849632
  atomic energy  EATOM  =      5956.46831764
  Solvation  Ediel_sol  =         0.00000000
  ---------------------------------------------------
  free energy    TOTEN  =     -1420.14963856 eV

  energy without entropy =    -1420.14963856  energy(sigma->0) =    -1420.14963856


--------------------------------------------------------------------------------------------------------




--------------------------------------- Iteration      1(   5)  ---------------------------------------


     EDDAV:  cpu time      1.3403: real time      1.3417
 BZINTS: Fermi energy:  -35.561899;   48.000000 electrons
         Band energy:-0.295571E+04;  BLOECHL correction:    0.000000
       DOS:  cpu time      0.0064: real time      0.0064
    CHARGE:  cpu time      0.1193: real time      0.1196
    MIXING:  cpu time      0.0013: real time      0.0013
    --------------------------------------------
      LOOP:  cpu time      1.4674: real time      1.4690

 eigenvalue-minimisations  :  3496
 total energy-change (2. order) :-0.9577307E+00  (-0.9530439E+00)
 number of electron      48.0000001 magnetization      -0.0000000
 augmentation part       29.2585871 magnetization       0.0001252

 Broyden mixing:
  rms(total) = 0.40600E+02    rms(broyden)= 0.40597E+02
  rms(prec ) = 0.53412E+02
  weight for this iteration     100.00

 Free energy of the ion-electron system (eV)
  ---------------------------------------------------
  alpha Z        PSCENC =       334.25025485
  Ewald energy   TEWEN  =     -4504.52196666
  -Hartree energ DENC   =      -231.14437883
  -exchange      EXHF   =         0.00000000
  -V(xc)+E(xc)   XCENC  =       106.31749593
  PAW double counting   =     54910.70869286   -55037.47955804
  entropy T*S    EENTRO =         0.00000000
  eigenvalues    EBANDS =     -2955.70622705
  atomic energy  EATOM  =      5956.46831764
  Solvation  Ediel_sol  =         0.00000000
  ---------------------------------------------------
  free energy    TOTEN  =     -1421.10736930 eV

  energy without entropy =    -1421.10736930  energy(sigma->0) =    -1421.10736930


--------------------------------------------------------------------------------------------------------




--------------------------------------- Iteration      1(   6)  ---------------------------------------


    POTLOK:  cpu time      0.0073: real time      0.0078
    SETDIJ:  cpu time      1.0084: real time      1.0092
     EDDAV:  cpu time      1.2050: real time      1.2059
 BZINTS: Fermi energy:    9.124098;   48.000000 electrons
         Band energy:-0.923434E+03;  BLOECHL correction:   -0.159655
       DOS:  cpu time      0.0117: real time      0.0117
    CHARGE:  cpu time      0.1154: real time      0.1155
    MIXING:  cpu time      0.0016: real time      0.0041
    --------------------------------------------
      LOOP:  cpu time      2.3493: real time      2.3540

 eigenvalue-minimisations  :  3048
 total energy-change (2. order) : 0.1120666E+04  (-0.2602990E+03)
 number of electron      48.0000000 magnetization      -0.1698414
 augmentation part       12.0981103 magnetization       0.1938009

 Broyden mixing:
  rms(total) = 0.39929E+02    rms(broyden)= 0.39929E+02
  rms(prec ) = 0.43909E+02
  weight for this iteration     100.00

 eigenvalues of (default mixing * dielectric matrix)
  average eigenvalue GAMMA=   0.5042
  0.5042

 Free energy of the ion-electron system (eV)
  ---------------------------------------------------
  alpha Z        PSCENC =       334.25025485
  Ewald energy   TEWEN  =     -4504.52196666
  -Hartree energ DENC   =      -894.04912076
  -exchange      EXHF   =         0.00000000
  -V(xc)+E(xc)   XCENC  =       127.56655524
  PAW double counting   =     38107.12739721   -38503.84818599
  entropy T*S    EENTRO =         0.00000000
  eigenvalues    EBANDS =      -923.43425883
  atomic energy  EATOM  =      5956.46831764
  Solvation  Ediel_sol  =         0.00000000
  ---------------------------------------------------
  free energy    TOTEN  =      -300.44100729 eV

  energy without entropy =     -300.44100729  energy(sigma->0) =     -300.44100729


--------------------------------------------------------------------------------------------------------




--------------------------------------- Iteration      1(   7)  ---------------------------------------


    POTLOK:  cpu time      0.0071: real time      0.0077
    SETDIJ:  cpu time      1.0076: real time      1.0081
     EDDAV:  cpu time      1.5025: real time      1.5037
 BZINTS: Fermi energy:   -1.835706;   48.000000 electrons
         Band energy:-0.986159E+03;  BLOECHL correction:   -0.088091
       DOS:  cpu time      0.0106: real time      0.0106
    CHARGE:  cpu time      0.1144: real time      0.1145
    MIXING:  cpu time      0.0013: real time      0.0013
    --------------------------------------------
      LOOP:  cpu time      2.6435: real time      2.6459

 eigenvalue-minimisations  :  3960
 total energy-change (2. order) : 0.1110117E+03  (-0.2058260E+03)
 number of electron      48.0000001 magnetization      -0.1033640
 augmentation part       27.7864037 magnetization       0.0005154

 Broyden mixing:
  rms(total) = 0.25062E+02    rms(broyden)= 0.25062E+02
  rms(prec ) = 0.30990E+02
  weight for this iteration     100.00

 eigenvalues of (default mixing * dielectric matrix)
  average eigenvalue GAMMA=   0.5200
  0.5200  0.5200

 Free energy of the ion-electron system (eV)
  ---------------------------------------------------
  alpha Z        PSCENC =       334.25025485
  Ewald energy   TEWEN  =     -4504.52196666
  -Hartree energ DENC   =      -846.53160312
  -exchange      EXHF   =         0.00000000
  -V(xc)+E(xc)   XCENC  =       126.23082115
  PAW double counting   =     94214.54044033   -94483.70612562
  entropy T*S    EENTRO =         0.00000000
  eigenvalues    EBANDS =      -986.15941875
  atomic energy  EATOM  =      5956.46831764
  Solvation  Ediel_sol  =         0.00000000
  ---------------------------------------------------
  free energy    TOTEN  =      -189.42928018 eV

  energy without entropy =     -189.42928018  energy(sigma->0) =     -189.42928018


--------------------------------------------------------------------------------------------------------




--------------------------------------- Iteration      1(   8)  ---------------------------------------


    POTLOK:  cpu time      0.0073: real time      0.0080
    SETDIJ:  cpu time      1.0106: real time      1.0112
     EDDAV:  cpu time      1.3438: real time      1.3452
 BZINTS: Fermi energy:    8.217192;   48.000000 electrons
         Band energy:-0.570872E+03;  BLOECHL correction:   -0.081101
       DOS:  cpu time      0.0118: real time      0.0118
    CHARGE:  cpu time      0.1160: real time      0.1161
    MIXING:  cpu time      0.0014: real time      0.0014
    --------------------------------------------
      LOOP:  cpu time      2.4908: real time      2.4936

 eigenvalue-minimisations  :  3496
 total energy-change (2. order) : 0.8007019E+02  (-0.8148125E+02)
 number of electron      48.0000000 magnetization      -0.0087282
 augmentation part       13.0823402 magnetization      -0.0633940

 Broyden mixing:
  rms(total) = 0.22220E+02    rms(broyden)= 0.22220E+02
  rms(prec ) = 0.26087E+02
  weight for this iteration     100.00

 eigenvalues of (default mixing * dielectric matrix)
  average eigenvalue GAMMA=   0.5102
  0.5573  0.5573  0.4160

 Free energy of the ion-electron system (eV)
  ---------------------------------------------------
  alpha Z        PSCENC =       334.25025485
  Ewald energy   TEWEN  =     -4504.52196666
  -Hartree energ DENC   =     -1095.37487710
  -exchange      EXHF   =         0.00000000
  -V(xc)+E(xc)   XCENC  =       135.72990527
  PAW double counting   =     74757.36756233   -75122.40619018
  entropy T*S    EENTRO =         0.00000000
  eigenvalues    EBANDS =      -570.87209883
  atomic energy  EATOM  =      5956.46831764
  Solvation  Ediel_sol  =         0.00000000
  ---------------------------------------------------
  free energy    TOTEN  =      -109.35909268 eV

  energy without entropy =     -109.35909268  energy(sigma->0) =     -109.35909268


--------------------------------------------------------------------------------------------------------




--------------------------------------- Iteration      1(   9)  ---------------------------------------


    POTLOK:  cpu time      0.0068: real time      0.0076
    SETDIJ:  cpu time      1.0153: real time      1.0159
     EDDAV:  cpu time      1.1502: real time      1.1511
 BZINTS: Fermi energy:    0.393011;   48.000000 electrons
         Band energy:-0.921974E+03;  BLOECHL correction:   -0.199936
       DOS:  cpu time      0.0136: real time      0.0136
    CHARGE:  cpu time      0.1166: real time      0.1167
    MIXING:  cpu time      0.0015: real time      0.0015
    --------------------------------------------
      LOOP:  cpu time      2.3040: real time      2.3065

 eigenvalue-minimisations  :  2912
 total energy-change (2. order) :-0.7579303E+02  (-0.1355829E+03)
 number of electron      48.0000001 magnetization      -0.0937423
 augmentation part       25.0938235 magnetization      -0.0118572

 Broyden mixing:
  rms(total) = 0.22685E+02    rms(broyden)= 0.22685E+02
  rms(prec ) = 0.29376E+02
  weight for this iteration     100.00

 eigenvalues of (default mixing * dielectric matrix)
  average eigenvalue GAMMA=   0.8596
  1.3276  1.3276  0.5428  0.2401

 Free energy of the ion-electron system (eV)
  ---------------------------------------------------
  alpha Z        PSCENC =       334.25025485
  Ewald energy   TEWEN  =     -4504.52196666
  -Hartree energ DENC   =      -926.52812961
  -exchange      EXHF   =         0.00000000
  -V(xc)+E(xc)   XCENC  =       129.57895003
  PAW double counting   =     55661.08028332   -55913.50579937
  entropy T*S    EENTRO =         0.00000000
  eigenvalues    EBANDS =      -921.97403441
  atomic energy  EATOM  =      5956.46831764
  Solvation  Ediel_sol  =         0.00000000
  ---------------------------------------------------
  free energy    TOTEN  =      -185.15212421 eV

  energy without entropy =     -185.15212421  energy(sigma->0) =     -185.15212421


--------------------------------------------------------------------------------------------------------




--------------------------------------- Iteration      1(  10)  ---------------------------------------


    POTLOK:  cpu time      0.0068: real time      0.0076
    SETDIJ:  cpu time      1.0149: real time      1.0155
     EDDAV:  cpu time      1.1537: real time      1.1545
 BZINTS: Fermi energy:   -2.583096;   48.000000 electrons
         Band energy:-0.102320E+04;  BLOECHL correction:   -0.015921
       DOS:  cpu time      0.0097: real time      0.0097
    CHARGE:  cpu time      0.1133: real time      0.1134
    MIXING:  cpu time      0.0014: real time      0.0014
    --------------------------------------------
      LOOP:  cpu time      2.2998: real time      2.3021

 eigenvalue-minimisations  :  2920
 total energy-change (2. order) :-0.8563337E+02  (-0.1932659E+02)
 number of electron      48.0000001 magnetization       0.0081122
 augmentation part       27.3104824 magnetization       0.0022554

 Broyden mixing:
  rms(total) = 0.96567E+01    rms(broyden)= 0.96567E+01
  rms(prec ) = 0.20874E+02
  weight for this iteration     100.00

 eigenvalues of (default mixing * dielectric matrix)
  average eigenvalue GAMMA=   0.9543
  1.6883  1.6883  0.6120  0.5243  0.2585

 Free energy of the ion-electron system (eV)
  ---------------------------------------------------
  alpha Z        PSCENC =       334.25025485
  Ewald energy   TEWEN  =     -4504.52196666
  -Hartree energ DENC   =      -945.56706649
  -exchange      EXHF   =         0.00000000
  -V(xc)+E(xc)   XCENC  =       130.41392868
  PAW double counting   =     13461.38684611   -13680.01123652
  entropy T*S    EENTRO =         0.00000000
  eigenvalues    EBANDS =     -1023.20456854
  atomic energy  EATOM  =      5956.46831764
  Solvation  Ediel_sol  =         0.00000000
  ---------------------------------------------------
  free energy    TOTEN  =      -270.78549091 eV

  energy without entropy =     -270.78549091  energy(sigma->0) =     -270.78549091


--------------------------------------------------------------------------------------------------------




--------------------------------------- Iteration      1(  11)  ---------------------------------------


    POTLOK:  cpu time      0.0072: real time      0.0079
    SETDIJ:  cpu time      1.0162: real time      1.0169
     EDDAV:  cpu time      0.9789: real time      0.9796
 BZINTS: Fermi energy:    0.154115;   48.000000 electrons
         Band energy:-0.710170E+03;  BLOECHL correction:   -0.043091
       DOS:  cpu time      0.0114: real time      0.0114
    CHARGE:  cpu time      0.1158: real time      0.1160
    MIXING:  cpu time      0.0014: real time      0.0014
    --------------------------------------------
      LOOP:  cpu time      2.1310: real time      2.1332

 eigenvalue-minimisations  :  2360
 total energy-change (2. order) : 0.9000174E+02  (-0.7528607E+01)
 number of electron      48.0000001 magnetization      -0.0147621
 augmentation part       24.6584969 magnetization       0.0122717

 Broyden mixing:
  rms(total) = 0.69624E+01    rms(broyden)= 0.69624E+01
  rms(prec ) = 0.17930E+02
  weight for this iteration     100.00

 eigenvalues of (default mixing * dielectric matrix)
  average eigenvalue GAMMA=   0.8613
  1.7277  1.7277  0.4803  0.4803  0.5070  0.2449

 Free energy of the ion-electron system (eV)
  ---------------------------------------------------
  alpha Z        PSCENC =       334.25025485
  Ewald energy   TEWEN  =     -4504.52196666
  -Hartree energ DENC   =     -1162.49623575
  -exchange      EXHF   =         0.00000000
  -V(xc)+E(xc)   XCENC  =       140.03608970
  PAW double counting   =      4076.88231900    -4311.23284931
  entropy T*S    EENTRO =         0.00000000
  eigenvalues    EBANDS =      -710.16968185
  atomic energy  EATOM  =      5956.46831764
  Solvation  Ediel_sol  =         0.00000000
  ---------------------------------------------------
  free energy    TOTEN  =      -180.78375238 eV

  energy without entropy =     -180.78375238  energy(sigma->0) =     -180.78375238


--------------------------------------------------------------------------------------------------------




--------------------------------------- Iteration      1(  12)  ---------------------------------------


    POTLOK:  cpu time      0.0070: real time      0.0079
    SETDIJ:  cpu time      1.0272: real time      1.0278
     EDDAV:  cpu time      1.1267: real time      1.1276
 BZINTS: Fermi energy:   -0.008486;   48.000000 electrons
         Band energy:-0.609184E+03;  BLOECHL correction:   -0.032769
       DOS:  cpu time      0.0118: real time      0.0118
    CHARGE:  cpu time      0.1157: real time      0.1158
    MIXING:  cpu time      0.0014: real time      0.0014
    --------------------------------------------
      LOOP:  cpu time      2.2897: real time      2.2923

 eigenvalue-minimisations  :  2864
 total energy-change (2. order) : 0.5380446E+02  (-0.8617896E+00)
 number of electron      48.0000001 magnetization      -0.0419868
 augmentation part       24.9996921 magnetization      -0.0097908

 Broyden mixing:
  rms(total) = 0.63248E+01    rms(broyden)= 0.63248E+01
  rms(prec ) = 0.16610E+02
  weight for this iteration     100.00

 eigenvalues of (default mixing * dielectric matrix)
  average eigenvalue GAMMA=   0.9383
  2.0700  1.4813  0.7913  0.7913  0.6757  0.5060  0.2526

 Free energy of the ion-electron system (eV)
  ---------------------------------------------------
  alpha Z        PSCENC =       334.25025485
  Ewald energy   TEWEN  =     -4504.52196666
  -Hartree energ DENC   =     -1197.39455976
  -exchange      EXHF   =         0.00000000
  -V(xc)+E(xc)   XCENC  =       141.23587548
  PAW double counting   =      4277.48150129    -4525.31429650
  entropy T*S    EENTRO =         0.00000000
  eigenvalues    EBANDS =      -609.18441448
  atomic energy  EATOM  =      5956.46831764
  Solvation  Ediel_sol  =         0.00000000
  ---------------------------------------------------
  free energy    TOTEN  =      -126.97928814 eV

  energy without entropy =     -126.97928814  energy(sigma->0) =     -126.97928814


--------------------------------------------------------------------------------------------------------




--------------------------------------- Iteration      1(  13)  ---------------------------------------


    POTLOK:  cpu time      0.0072: real time      0.0081
    SETDIJ:  cpu time      1.0115: real time      1.0120
     EDDAV:  cpu time      1.0503: real time      1.0511
 BZINTS: Fermi energy:    0.272578;   48.000000 electrons
         Band energy:-0.501583E+03;  BLOECHL correction:   -0.046216
       DOS:  cpu time      0.0108: real time      0.0107
    CHARGE:  cpu time      0.1147: real time      0.1148
    MIXING:  cpu time      0.0015: real time      0.0015
    --------------------------------------------
      LOOP:  cpu time      2.1960: real time      2.1982

 eigenvalue-minimisations  :  2616
 total energy-change (2. order) : 0.4239823E+02  (-0.6474960E+00)
 number of electron      48.0000001 magnetization      -0.0528885
 augmentation part       24.6684243 magnetization      -0.0050033

 Broyden mixing:
  rms(total) = 0.59971E+01    rms(broyden)= 0.59971E+01
  rms(prec ) = 0.15658E+02
  weight for this iteration     100.00

 eigenvalues of (default mixing * dielectric matrix)
  average eigenvalue GAMMA=   0.8902
  2.0147  1.5115  0.9506  0.9506  0.6720  0.5050  0.2478  0.2691

 Free energy of the ion-electron system (eV)
  ---------------------------------------------------
  alpha Z        PSCENC =       334.25025485
  Ewald energy   TEWEN  =     -4504.52196666
  -Hartree energ DENC   =     -1247.00031569
  -exchange      EXHF   =         0.00000000
  -V(xc)+E(xc)   XCENC  =       143.25238506
  PAW double counting   =      4101.22683922    -4366.67357002
  entropy T*S    EENTRO =         0.00000000
  eigenvalues    EBANDS =      -501.58300648
  atomic energy  EATOM  =      5956.46831764
  Solvation  Ediel_sol  =         0.00000000
  ---------------------------------------------------
  free energy    TOTEN  =       -84.58106207 eV

  energy without entropy =      -84.58106207  energy(sigma->0) =      -84.58106207


--------------------------------------------------------------------------------------------------------




--------------------------------------- Iteration      1(  14)  ---------------------------------------


    POTLOK:  cpu time      0.0074: real time      0.0082
    SETDIJ:  cpu time      1.0153: real time      1.0159
     EDDAV:  cpu time      1.3011: real time      1.3024
 BZINTS: Fermi energy:    0.200276;   48.000000 electrons
         Band energy:-0.467117E+03;  BLOECHL correction:   -0.041350
       DOS:  cpu time      0.0113: real time      0.0113
    CHARGE:  cpu time      0.1147: real time      0.1147
    MIXING:  cpu time      0.0015: real time      0.0015
    --------------------------------------------
      LOOP:  cpu time      2.4512: real time      2.4540

 eigenvalue-minimisations  :  3352
 total energy-change (2. order) : 0.1566882E+02  (-0.1323488E+00)
 number of electron      48.0000001 magnetization      -0.1260785
 augmentation part       24.7768046 magnetization      -0.0775665

 Broyden mixing:
  rms(total) = 0.58022E+01    rms(broyden)= 0.58022E+01
  rms(prec ) = 0.15191E+02
  weight for this iteration     100.00

 eigenvalues of (default mixing * dielectric matrix)
  average eigenvalue GAMMA=   1.1790
  2.1335  2.1335  2.1380  1.3692  0.2521  0.7299  0.7299  0.5017  0.6230

 Free energy of the ion-electron system (eV)
  ---------------------------------------------------
  alpha Z        PSCENC =       334.25025485
  Ewald energy   TEWEN  =     -4504.52196666
  -Hartree energ DENC   =     -1258.78752910
  -exchange      EXHF   =         0.00000000
  -V(xc)+E(xc)   XCENC  =       143.66995808
  PAW double counting   =      4121.15058943    -4394.02471212
  entropy T*S    EENTRO =         0.00000000
  eigenvalues    EBANDS =      -467.11714962
  atomic energy  EATOM  =      5956.46831764
  Solvation  Ediel_sol  =         0.00000000
  ---------------------------------------------------
  free energy    TOTEN  =       -68.91223749 eV

  energy without entropy =      -68.91223749  energy(sigma->0) =      -68.91223749


--------------------------------------------------------------------------------------------------------




--------------------------------------- Iteration      1(  15)  ---------------------------------------


    POTLOK:  cpu time      0.0071: real time      0.0076
    SETDIJ:  cpu time      1.0149: real time      1.0155
     EDDAV:  cpu time      1.2817: real time      1.2827
 BZINTS: Fermi energy:   10.267097;   48.000000 electrons
         Band energy:-0.284317E+03;  BLOECHL correction:   -0.182684
       DOS:  cpu time      0.0118: real time      0.0118
    CHARGE:  cpu time      0.1159: real time      0.1160
    MIXING:  cpu time      0.0016: real time      0.0016
    --------------------------------------------
      LOOP:  cpu time      2.4331: real time      2.4352

 eigenvalue-minimisations  :  3312
 total energy-change (2. order) :-0.2941131E+01  (-0.3300985E+02)
 number of electron      48.0000000 magnetization      -0.1947706
 augmentation part       11.9005820 magnetization      -0.2157025

 Broyden mixing:
  rms(total) = 0.53792E+01    rms(broyden)= 0.53792E+01
  rms(prec ) = 0.16284E+02
  weight for this iteration     100.00

 eigenvalues of (default mixing * dielectric matrix)
  average eigenvalue GAMMA=   1.0867
  2.0680  2.0680  1.8848  1.6150  0.7619  0.7619  0.6369  0.5003  0.2522  0.3180

 Free energy of the ion-electron system (eV)
  ---------------------------------------------------
  alpha Z        PSCENC =       334.25025485
  Ewald energy   TEWEN  =     -4504.52196666
  -Hartree energ DENC   =     -1369.40150062
  -exchange      EXHF   =         0.00000000
  -V(xc)+E(xc)   XCENC  =       147.47861319
  PAW double counting   =      4467.07818455    -4818.88805476
  entropy T*S    EENTRO =         0.00000000
  eigenvalues    EBANDS =      -284.31721663
  atomic energy  EATOM  =      5956.46831764
  Solvation  Ediel_sol  =         0.00000000
  ---------------------------------------------------
  free energy    TOTEN  =       -71.85336845 eV

  energy without entropy =      -71.85336845  energy(sigma->0) =      -71.85336845


--------------------------------------------------------------------------------------------------------




--------------------------------------- Iteration      1(  16)  ---------------------------------------


    POTLOK:  cpu time      0.0070: real time      0.0082
    SETDIJ:  cpu time      1.0097: real time      1.0107
     EDDAV:  cpu time      1.1654: real time      1.1663
 BZINTS: Fermi energy:   10.578813;   48.000000 electrons
         Band energy:-0.246889E+03;  BLOECHL correction:   -0.232589
       DOS:  cpu time      0.0127: real time      0.0128
    CHARGE:  cpu time      0.1158: real time      0.1159
    MIXING:  cpu time      0.0016: real time      0.0016
    --------------------------------------------
      LOOP:  cpu time      2.3123: real time      2.3155

 eigenvalue-minimisations  :  2984
 total energy-change (2. order) :-0.1387156E+03  (-0.4763257E+01)
 number of electron      48.0000000 magnetization      -0.1993078
 augmentation part       11.8317162 magnetization      -0.1946546

 Broyden mixing:
  rms(total) = 0.65738E+01    rms(broyden)= 0.65738E+01
  rms(prec ) = 0.19342E+02
  weight for this iteration     100.00

 eigenvalues of (default mixing * dielectric matrix)
  average eigenvalue GAMMA=   1.0191
  1.9726  1.9726  1.9880  1.5110  0.7717  0.7717  0.2522  0.5886  0.5035  0.4394
  0.4394

 Free energy of the ion-electron system (eV)
  ---------------------------------------------------
  alpha Z        PSCENC =       334.25025485
  Ewald energy   TEWEN  =     -4504.52196666
  -Hartree energ DENC   =     -1475.40884202
  -exchange      EXHF   =         0.00000000
  -V(xc)+E(xc)   XCENC  =       151.27283536
  PAW double counting   =      4963.19350499    -5388.93456368
  entropy T*S    EENTRO =         0.00000000
  eigenvalues    EBANDS =      -246.88853423
  atomic energy  EATOM  =      5956.46831764
  Solvation  Ediel_sol  =         0.00000000
  ---------------------------------------------------
  free energy    TOTEN  =      -210.56899376 eV

  energy without entropy =     -210.56899376  energy(sigma->0) =     -210.56899376


--------------------------------------------------------------------------------------------------------




--------------------------------------- Iteration      1(  17)  ---------------------------------------


    POTLOK:  cpu time      0.0068: real time      0.0080
    SETDIJ:  cpu time      1.0095: real time      1.0104
     EDDAV:  cpu time      1.4600: real time      1.4611
 BZINTS: Fermi energy:   10.555867;   48.000000 electrons
         Band energy:-0.252794E+03;  BLOECHL correction:   -0.242617
       DOS:  cpu time      0.0123: real time      0.0123
    CHARGE:  cpu time      0.1154: real time      0.1154
    MIXING:  cpu time      0.0017: real time      0.0017
    --------------------------------------------
      LOOP:  cpu time      2.6058: real time      2.6090

 eigenvalue-minimisations  :  3816
 total energy-change (2. order) :-0.3397643E+02  (-0.1313320E+02)
 number of electron      48.0000148 magnetization      -0.2471839
 augmentation part       12.2047734 magnetization      -0.2157622

 Broyden mixing:
  rms(total) = 0.71947E+01    rms(broyden)= 0.71947E+01
  rms(prec ) = 0.20124E+02
  weight for this iteration     100.00

 eigenvalues of (default mixing * dielectric matrix)
  average eigenvalue GAMMA=   0.9545
  2.1102  2.1102  1.7178  1.7178  0.8007  0.8007  0.6010  0.4997  0.2521  0.3916
  0.3916  0.0604

 Free energy of the ion-electron system (eV)
  ---------------------------------------------------
  alpha Z        PSCENC =       334.25025485
  Ewald energy   TEWEN  =     -4504.52196666
  -Hartree energ DENC   =     -1493.62092732
  -exchange      EXHF   =         0.00000000
  -V(xc)+E(xc)   XCENC  =       151.94838048
  PAW double counting   =      5014.60185480    -5450.87723631
  entropy T*S    EENTRO =         0.00000000
  eigenvalues    EBANDS =      -252.79410041
  atomic energy  EATOM  =      5956.46831764
  Solvation  Ediel_sol  =         0.00000000
  ---------------------------------------------------
  free energy    TOTEN  =      -244.54542292 eV

  energy without entropy =     -244.54542292  energy(sigma->0) =     -244.54542292


--------------------------------------------------------------------------------------------------------




--------------------------------------- Iteration      1(  18)  ---------------------------------------


    POTLOK:  cpu time      0.0072: real time      0.0078
    SETDIJ:  cpu time      0.9270: real time      0.9275
     EDDAV:  cpu time      1.0919: real time      1.0927
 BZINTS: Fermi energy:   10.531142;   48.000000 electrons
         Band energy:-0.232471E+03;  BLOECHL correction:   -0.231051
       DOS:  cpu time      0.0125: real time      0.0125
    CHARGE:  cpu time      0.1153: real time      0.1154
    MIXING:  cpu time      0.0018: real time      0.0018
    --------------------------------------------
      LOOP:  cpu time      2.1557: real time      2.1575

 eigenvalue-minimisations  :  2736
 total energy-change (2. order) :-0.6814257E+02  (-0.1455712E+02)
 number of electron      48.0000090 magnetization      -0.2470300
 augmentation part       12.2202818 magnetization      -0.2166640

 Broyden mixing:
  rms(total) = 0.77909E+01    rms(broyden)= 0.77909E+01
  rms(prec ) = 0.21702E+02
  weight for this iteration     100.00

 eigenvalues of (default mixing * dielectric matrix)
  average eigenvalue GAMMA=   0.9352
  2.2156  2.2156  2.0055  1.4390  0.7874  0.7874  0.3158  0.6382  0.4996  0.3638
  0.3638  0.2521  0.2735

 Free energy of the ion-electron system (eV)
  ---------------------------------------------------
  alpha Z        PSCENC =       334.25025485
  Ewald energy   TEWEN  =     -4504.52196666
  -Hartree energ DENC   =     -1546.36833275
  -exchange      EXHF   =         0.00000000
  -V(xc)+E(xc)   XCENC  =       153.76860260
  PAW double counting   =      5010.03091566    -5483.84528867
  entropy T*S    EENTRO =         0.00000000
  eigenvalues    EBANDS =      -232.47050014
  atomic energy  EATOM  =      5956.46831764
  Solvation  Ediel_sol  =         0.00000000
  ---------------------------------------------------
  free energy    TOTEN  =      -312.68799748 eV

  energy without entropy =     -312.68799748  energy(sigma->0) =     -312.68799748


--------------------------------------------------------------------------------------------------------




--------------------------------------- Iteration      1(  19)  ---------------------------------------


    POTLOK:  cpu time      0.0072: real time      0.0077
    SETDIJ:  cpu time      0.9278: real time      0.9285
     EDDAV:  cpu time      1.3311: real time      1.3320
 BZINTS: Fermi energy:   10.431770;   48.000000 electrons
         Band energy:-0.238601E+03;  BLOECHL correction:   -0.268991
       DOS:  cpu time      0.0131: real time      0.0131
    CHARGE:  cpu time      0.1155: real time      0.1156
    MIXING:  cpu time      0.0018: real time      0.0018
    --------------------------------------------
      LOOP:  cpu time      2.3965: real time      2.3986

 eigenvalue-minimisations  :  3448
 total energy-change (2. order) :-0.5422459E+01  (-0.1013740E+02)
 number of electron      48.0000740 magnetization      -0.2481163
 augmentation part       12.2754623 magnetization      -0.1702154

 Broyden mixing:
  rms(total) = 0.80802E+01    rms(broyden)= 0.80802E+01
  rms(prec ) = 0.21857E+02
  weight for this iteration     100.00

 eigenvalues of (default mixing * dielectric matrix)
  average eigenvalue GAMMA=   0.8790
  2.2695  2.2695  1.9423  1.4640  0.8043  0.8043  0.3473  0.6246  0.4985  0.3491
  0.3491  0.2521  0.3303  0.0004

 Free energy of the ion-electron system (eV)
  ---------------------------------------------------
  alpha Z        PSCENC =       334.25025485
  Ewald energy   TEWEN  =     -4504.52196666
  -Hartree energ DENC   =     -1545.92234321
  -exchange      EXHF   =         0.00000000
  -V(xc)+E(xc)   XCENC  =       153.75350960
  PAW double counting   =      5012.63138742    -5486.16846836
  entropy T*S    EENTRO =         0.00000000
  eigenvalues    EBANDS =      -238.60114756
  atomic energy  EATOM  =      5956.46831764
  Solvation  Ediel_sol  =         0.00000000
  ---------------------------------------------------
  free energy    TOTEN  =      -318.11045628 eV

  energy without entropy =     -318.11045628  energy(sigma->0) =     -318.11045628


--------------------------------------------------------------------------------------------------------




--------------------------------------- Iteration      1(  20)  ---------------------------------------


    POTLOK:  cpu time      0.0073: real time      0.0078
    SETDIJ:  cpu time      0.9235: real time      0.9240
     EDDAV:  cpu time      1.1672: real time      1.1681
 BZINTS: Fermi energy:   10.490502;   48.000000 electrons
         Band energy:-0.229964E+03;  BLOECHL correction:   -0.208817
       DOS:  cpu time      0.0125: real time      0.0125
    CHARGE:  cpu time      0.1162: real time      0.1162
[...]
  288          m_sumb_d                              0.000012                          2   4
  289        strnlr                                0.618309                            1   3
  290          rspher_all                            0.068895                          9   4
  291          phaser                                0.211365                        144   4
  292          rpro_isp                              0.333935                        144   4
  293            fftwav_mpi                            0.071411                     2304   5
  294              fftwav                                0.068660                   2304   6
  295                fft3d                                 0.015726                 2304   7
  296            rpromu_acc                            0.099667                      576   5
  297          m_sumb_d                              0.000013                          1   4
  298        fft3d_mpi                             0.003167                           22   3
  299          fftbrc_mpi                            0.002474                         22   4
  300            fftbas_plan_mpi                       0.002460                       22   5
  301              map_forward                           0.000865                     20   6
  302                map_gather                            0.000205                   10   7
  303                m_alltoallv_z                         0.000128                   10   7
  304                map_scatter                           0.000389                   10   7
  305              map_backward                          0.000952                     24   6
  306                map_gather                            0.000232                   12   7
  307                m_alltoallv_z                         0.000141                   12   7
  308                map_scatter                           0.000412                   12   7
  309        m_sumb_d                              0.000032                            5   3
  310        forhar                                0.001300                            2   3
  311          m_sumb_d                              0.000022                          2   4
  312        strehar                               0.000865                            1   3
  313          m_sumb_d                              0.000004                          1   4
  314        chggra                                0.000743                            1   3
  315          fft3d_mpi                             0.000441                          3   4
  316            fftbrc_mpi                            0.000350                        3   5
  317              fftbas_plan_mpi                       0.000347                      3   6
  318                map_forward                           0.000168                    4   7
  319                  map_gather                            0.000042                  2   8
  320                  m_alltoallv_z                         0.000025                  2   8
  321                  map_scatter                           0.000075                  2   8
  322                map_backward                          0.000094                    2   7
  323                  map_gather                            0.000019                  1   8
  324                  m_alltoallv_z                         0.000011                  1   8
  325                  map_scatter                           0.000050                  1   8
  326          m_sumb_d                              0.000010                          2   4
  327          pothar                                0.000073                          1   4
  328            m_sumb_d                              0.000007                        1   5
  329        brmix                                 0.004806                            1   3
  330          m_sumb_d                              0.000033                          6   4
  331          brpre                                 0.000015                          2   4
  332          setg0                                 0.000498                          1   4
  333          broyd                                 0.003699                          1   4
  334            m_sumb_d                              0.000275                       51   5
  335            brget                                 0.000653                      229   5
  336            brsav                                 0.000132                       49   5
  337        m_bcast_d                             0.000016                            2   3
  338      potlok                                0.018987                              2   2
  339        fft3d_mpi                             0.012501                           36   3
  340          fftbrc_mpi                            0.010763                         36   4
  341            fftbas_plan_mpi                       0.010745                       36   5
  342              map_forward                           0.003165                     40   6
  343                map_gather                            0.001029                   24   7
  344                m_alltoallv_z                         0.001036                   24   7
  345                map_scatter                           0.000916                   24   7
  346              map_backward                          0.002669                     32   6
  347                map_gather                            0.000786                   16   7
  348                m_alltoallv_z                         0.000907                   16   7
  349                map_scatter                           0.000802                   16   7
  350              dfftw_execute                         0.003320                     30   6
  351        m_sumb_d                              0.000025                            5   3
  352        pothar                                0.000698                            2   3
  353          m_sumb_d                              0.000059                          2   4
  354        m_bcast_d                             0.001139                            4   3
  355      potlok_metagga                        0.000001                              1   2
  356      set_dd_magatom                        0.000004                              1   2
  357      set_dd_paw                            0.938394                              1   2
  358        m_sumb_d                              0.480126                            7   3
  359      augmentation_charge                   0.075178                              1   2
  360        fft3d_mpi                             0.016499                            2   3
  361          fftbrc_mpi                            0.014590                          2   4
  362            fftbas_plan_mpi                       0.014587                        2   5
  363              dfftw_execute                         0.008896                      6   6
  364              map_backward                          0.005533                      4   6
  365                map_gather                            0.001402                    2   7
  366                m_alltoallv_z                         0.002861                    2   7
  367                map_scatter                           0.001264                    2   7
  368      fftwav_mpi                            0.347223                            768   2
  369        fftwav                                0.346026                          768   3
  370          fft3d                                 0.330403                        768   4
  371      densta                                0.228527                              1   2
 
 Flat profile
 ============
 
             routine name                   CPU           calls
 ---------------------------------------------------------------
 m_sumb_d                               79.925465      212813
 set_dd_paw                             63.042455         137
 lapack                                 29.868147       65775
 eddav                                  29.623816         139
 raccmu_                                24.042026       65775
 redis_pw                               11.601518      368026
 init_acc                               11.066929           1
 setdij_                                 8.757322         163
 augmentation_charge                     7.891359         137
 total_time                              7.255815           1
 m_alltoall_d                            6.819111      957714
 phaser                                  6.653498        4656
 dfftw_execute                           3.685562        3732
 fft3d                                   3.286642      392147
 eccp                                    3.098862       35584
 redis_proj                              3.093220      464024
 fftwav                                  2.517387      260597
 acc_init_cublas                         2.398458           1
 soft_charge                             2.210868         136
 orth1                                   2.123005      197357
 w1_copy                                 1.928644      394650
 racc0mu_acc                             1.907303       65775
 overl                                   1.881208      227548
 densta                                  1.855625         140
 rpromu_acc                              1.532271       48815
 hamiltmu                                1.468227       65775
 m_bcast_z                               1.324909       66799
 setup_precond                           1.293621       35584
 m_alltoallv_z                           1.278374        5371
 m_bcast_d                               1.085177      131829
 overl_mu                                1.016225       65775
 ggemm                                   0.861713       83567
 acc_init_cusolver                       0.789323           1
 fft3d_mpi                               0.757895      136355
 pw_charge                               0.748578       28985
 set_charge                              0.711939         136
 kinhamil                                0.602376      131550
 vhamil                                  0.600873      131550
 newband                                 0.571869       70223
 fftext_mpi                              0.565094      131550
 depsum                                  0.564816         136
 map_gather                              0.564697        5371
 map_scatter                             0.544982        5371
 apply_precond                           0.527057       95966
 potlok                                  0.373303         137
 fftwav_mpi                              0.348972      260597
 broyd                                   0.264023         135
 fftbas_plan_mpi                         0.238094        4805
 rpro_isp                                0.227147         208
 elmin                                   0.223834           1
 lincom                                  0.134946        4480
 acc_cufft_makeplan                      0.113316          19
 rspher_all                              0.102717          14
 brmix                                   0.076103         135
 brget                                   0.072756       27165
 setg0                                   0.062725         137
 w1_projall                              0.049918       47983
 proall                                  0.040854           1
 map_backward                            0.025789        5066
 map_forward                             0.024564        4544
 sphpro_fast                             0.020496           2
 brsav                                   0.019314        7577
 truncate_high_frequency_w1              0.013661      167134
 pothar                                  0.010356         138
 orthch                                  0.007578           1
 force_and_stress                        0.007431           1
 choleski                                0.006420          32
 inisym                                  0.004984           1
 strnlr                                  0.004101           1
 fft_gq                                  0.003483         136
 fftbrc_mpi                              0.002807        4805
 brpre                                   0.002326         270
 stufak                                  0.001915           1
 fornlr                                  0.001451           1
 forhar                                  0.001278           2
 strelo                                  0.001153           1
 strehar                                 0.000861           1
 forloc                                  0.000691           1
 set_dd_magatom                          0.000611         137
 vectorpot                               0.000580         136
 fewald                                  0.000348           1
 chggra                                  0.000219           1
 strkin                                  0.000201           1
 brgrid                                  0.000106           1
 rsp                                     0.000050           1
 fordep                                  0.000044           1
 posmap                                  0.000035           2
 crpa_reader                             0.000030           1
 rcp                                     0.000020           1
 potlok_metagga                          0.000015         136
 acc_cufft_makeplans                     0.000010           3
 rotate_active_occupied_orbital          0.000000           1
 redis_pw_over_bands                     0.000000           1
 ---------------------------------------------------------------
  summed up times     336.4358971118927     
 
 Accumulative profile
 ====================
 
             routine name                   CPU           calls
 ---------------------------------------------------------------
 total_time                            336.435897           1
 elmin                                 308.255981           1
 eddav                                 153.182531         139
 set_dd_paw                            127.616446         137
 m_sumb_d                               79.925465      212813
 hamiltmu                               31.165271       65775
 lapack                                 29.868147       65775
 raccmu_                                26.965554       65775
 set_charge                             15.752795         136
 redis_pw                               14.921749      368026
 setdij_                                12.588093         163
 init_acc                               11.066929           1
 augmentation_charge                    10.215100         137
 fft3d_mpi                               8.046666      136355
 newband                                 7.503355       70223
 m_alltoall_d                            6.819111      957714
 phaser                                  6.653498        4656
 redis_proj                              6.592101      464024
 fftbrc_mpi                              6.364867        4805
 fftbas_plan_mpi                         6.362061        4805
 fftwav_mpi                              5.229098      260597
 fftwav                                  4.880126      260597
 soft_charge                             4.230622         136
 force_and_stress                        3.905287           1
 dfftw_execute                           3.685562        3732
 fft3d                                   3.286642      392147
 eccp                                    3.098862       35584
 acc_init_cublas                         2.398458           1
 kinhamil                                2.130617      131550
 orth1                                   2.123005      197357
 w1_copy                                 1.928644      394650
 racc0mu_acc                             1.907303       65775
 overl                                   1.881208      227548
 densta                                  1.855625         140
 rpromu_acc                              1.532271       48815
 fftext_mpi                              1.528241      131550
 w1_projall                              1.447034       47983
 m_bcast_z                               1.324909       66799
 setup_precond                           1.293621       35584
 m_alltoallv_z                           1.278374        5371
 map_forward                             1.238647        4544
 map_backward                            1.199759        5066
 potlok                                  1.089441         137
 m_bcast_d                               1.085177      131829
 overl_mu                                1.016225       65775
 ggemm                                   0.861713       83567
 acc_init_cusolver                       0.789323           1
 pw_charge                               0.748578       28985
 strnlr                                  0.618309           1
 vhamil                                  0.600873      131550
 depsum                                  0.572472         136
 map_gather                              0.564697        5371
 map_scatter                             0.544982        5371
 brmix                                   0.533197         135
 apply_precond                           0.527057       95966
 fordep                                  0.464446           1
 rpro_isp                                0.462235         208
 broyd                                   0.387239         135
 orthch                                  0.208629           1
 fornlr                                  0.206960           1
 fft_gq                                  0.138770         136
 lincom                                  0.134946        4480
 acc_cufft_makeplans                     0.113326           3
 acc_cufft_makeplan                      0.113316          19
 rspher_all                              0.102717          14
 proall                                  0.080439           1
 brget                                   0.072756       27165
 setg0                                   0.062725         137
 sphpro_fast                             0.021033           2
 brsav                                   0.019314        7577
 truncate_high_frequency_w1              0.013661      167134
 pothar                                  0.011600         138
 choleski                                0.006420          32
 inisym                                  0.005019           1
 brpre                                   0.002326         270
 stufak                                  0.001915           1
 forhar                                  0.001300           2
 strelo                                  0.001165           1
 strehar                                 0.000865           1
 chggra                                  0.000743           1
 forloc                                  0.000704           1
 set_dd_magatom                          0.000611         137
 vectorpot                               0.000580         136
 fewald                                  0.000472           1
 strkin                                  0.000218           1
 brgrid                                  0.000106           1
 rsp                                     0.000050           1
 posmap                                  0.000035           2
 crpa_reader                             0.000030           1
 rcp                                     0.000020           1
 potlok_metagga                          0.000015         136
 rotate_active_occupied_orbital          0.000000           1
 redis_pw_over_bands                     0.000000           1
 ---------------------------------------------------------------
 
Profiling took   0.828577  0.405383  0.003231  0.003141 seconds
Profiling took   0.498040 seconds
