 vasp.6.3.2 27Jun22 (build Jul  3 2023 11:46:21) complex                         
 executed on    LinuxNV_CrayMPICH date 2024.04.21  01:56:44
 running on    4 total cores
 distrk:  each k-point on    4 cores,    1 groups
 distr:  one band on NCORE=   1 cores,    4 groups


--------------------------------------------------------------------------------------------------------


 INCAR:
   ALGO = Normal
   EDIFF = 0.0018
   ENCUT = 520.0
   IBRION = 2
   ICHARG = 1
   ISIF = 3
   ISMEAR = -5
   ISPIN = 2
   ISTART = 1
   KPOINT_BSE = -1 0 0 0
   LORBIT = 11
   LREAL = Auto
   LWAVE = False
   MAGMOM = 4*7.0 32*0.6
   NELM = 1000
   NSW = 99
   POTIM = 0.25
   PREC = accurate
   SIGMA = 0.05

 POTCAR:    PAW_PBE Eu 23Dec2003                  
 POTCAR:    PAW_PBE B 06Sep2000                   
 POTCAR:    PAW_PBE Ru_pv 28Jan2005               
 POTCAR:    PAW_PBE Eu 23Dec2003                  
   SHA256 =  ed303d27e7c5191953f9b15539336e6f36d9037c1d2e92e80c13d733697cb93d Eu/POTCAR             
   COPYR  = (c) Copyright 23Dec2003 Georg Kresse                                                    
   COPYR  = This file is part of the software VASP. Any use, copying, and all other rights are regul
   COPYR  = If you do not have a valid VASP license, you may not use, copy or distribute this file. 
   VRHFIN =Eu : [core=Kr4d]                                                                         
   LEXCH  = PE                                                                                      
   EATOM  =  2619.8085 eV,  192.5505 Ry                                                             
                                                                                                    
   TITEL  = PAW_PBE Eu 23Dec2003                                                                    
   LULTRA =        F    use ultrasoft PP ?                                                          
   IUNSCR =        1    unscreen: 0-lin 1-nonlin 2-no                                               
   RPACOR =    2.300    partial core radius                                                         
   POMASS =  151.965; ZVAL   =   17.000    mass and valenz                                          
   RCORE  =    2.800    outmost cutoff radius                                                       
   RWIGS  =    2.800; RWIGS  =    1.482    wigner-seitz radius (au A)                               
   ENMAX  =  249.668; ENMIN  =  187.251 eV                                                          
   RCLOC  =    2.308    cutoff for local pot                                                        
   LCOR   =        T    correct aug charges                                                         
   LPAW   =        T    paw PP                                                                      
   EAUG   =  549.628                                                                                
   DEXC   =    0.000                                                                                
   RMAX   =    2.870    core radius for proj-oper                                                   
   RAUG   =    1.300    factor for augmentation sphere                                              
   RDEP   =    2.887    radius for radial grids                                                     
   RDEPT  =    2.221    core radius for aug-charge                                                  
                                                                                                    
   Atomic configuration                                                                             
   14 entries                                                                                       
     n  l   j            E        occ.                                                              
     1  0  0.50    -48354.7667   2.0000                                                             
     2  0  0.50     -7939.6472   2.0000                                                             
     2  1  1.50     -7072.6637   6.0000                                                             
     3  0  0.50     -1747.1875   2.0000                                                             
     3  1  1.50     -1477.5221   6.0000                                                             
     3  2  2.50     -1117.4686  10.0000                                                             
     4  0  0.50      -346.8682   2.0000                                                             
     4  1  1.50      -258.1962   6.0000                                                             
     4  2  2.50      -134.7724  10.0000                                                             
     5  0  0.50       -44.6510   2.0000                                                             
     6  0  0.50        -3.6227   2.0000                                                             
     5  1  1.50       -23.7639   6.0000                                                             
     5  2  2.50        -1.3130   0.0000                                                             
     4  3  2.50        -2.7310   7.0000                                                             
   Description                                                                                      
     l       E           TYP  RCUT    TYP  RCUT                                                     
     0    -44.6510453     23  2.400                                                                 
     0     -3.6226685     23  2.400                                                                 
     1    -23.7638687     23  2.400                                                                 
     1     27.2116520     23  2.400                                                                 
     2     -1.3129622     23  2.500                                                                 
     2     13.6058260     23  2.500                                                                 
     3     -2.7309948     23  2.800                                                                 
     3     -3.4014565     23  2.800                                                                 
  local pseudopotential read in
  partial core-charges read in
  partial kinetic energy density read in
  atomic valenz-charges read in
  non local Contribution for L=            0  read in
    real space projection operators read in
  non local Contribution for L=            0  read in
    real space projection operators read in
  non local Contribution for L=            1  read in
    real space projection operators read in
  non local Contribution for L=            1  read in
    real space projection operators read in
  non local Contribution for L=            2  read in
    real space projection operators read in
  non local Contribution for L=            2  read in
    real space projection operators read in
  non local Contribution for L=            3  read in
    real space projection operators read in
  non local Contribution for L=            3  read in
    real space projection operators read in
    PAW grid and wavefunctions read in
 
   number of l-projection  operators is LMAX  =            8
   number of lm-projection operators is LMMAX =           32
 
 POTCAR:    PAW_PBE B 06Sep2000                   
   SHA256 =  a32ced30f5ae56fd4d10b4325ff17eb3e4e38ee0f4288bc219fb012fddfa6e97 B/POTCAR              
   COPYR  = (c) Copyright 06Sep2000 Georg Kresse                                                    
   COPYR  = This file is part of the software VASP. Any use, copying, and all other rights are regul
   COPYR  = If you do not have a valid VASP license, you may not use, copy or distribute this file. 
   VRHFIN =B: s2p1                                                                                  
   LEXCH  = PE                                                                                      
   EATOM  =    71.1703 eV,    5.2309 Ry                                                             
                                                                                                    
   TITEL  = PAW_PBE B 06Sep2000                                                                     
   LULTRA =        F    use ultrasoft PP ?                                                          
   IUNSCR =        1    unscreen: 0-lin 1-nonlin 2-no                                               
   RPACOR =    1.200    partial core radius                                                         
   POMASS =   10.811; ZVAL   =    3.000    mass and valenz                                          
   RCORE  =    1.700    outmost cutoff radius                                                       
   RWIGS  =    1.710; RWIGS  =    0.905    wigner-seitz radius (au A)                               
   ENMAX  =  318.614; ENMIN  =  238.960 eV                                                          
   ICORE  =        2    local potential                                                             
   LCOR   =        T    correct aug charges                                                         
   LPAW   =        T    paw PP                                                                      
   EAUG   =  535.514                                                                                
   DEXC   =    0.000                                                                                
   RMAX   =    1.732    core radius for proj-oper                                                   
   RAUG   =    1.300    factor for augmentation sphere                                              
   RDEP   =    1.757    radius for radial grids                                                     
   RDEPT  =    1.436    core radius for aug-charge                                                  
                                                                                                    
   Atomic configuration                                                                             
    4 entries                                                                                       
     n  l   j            E        occ.                                                              
     1  0  0.50      -180.5896   2.0000                                                             
     2  0  0.50        -9.4431   2.0000                                                             
     2  1  0.50        -3.6068   1.0000                                                             
     3  2  1.50        -4.0817   0.0000                                                             
   Description                                                                                      
     l       E           TYP  RCUT    TYP  RCUT                                                     
     0     -9.4430752     23  1.500                                                                 
     0      0.8675899     23  1.500                                                                 
     1     -3.6067955     23  1.700                                                                 
     1      6.1086146     23  1.700                                                                 
     2     -4.0817478      7  1.700                                                                 
  local pseudopotential read in
  partial core-charges read in
  partial kinetic energy density read in
  atomic valenz-charges read in
  non local Contribution for L=            0  read in
    real space projection operators read in
  non local Contribution for L=            0  read in
    real space projection operators read in
  non local Contribution for L=            1  read in
    real space projection operators read in
  non local Contribution for L=            1  read in
    real space projection operators read in
    PAW grid and wavefunctions read in
 
   number of l-projection  operators is LMAX  =            4
   number of lm-projection operators is LMMAX =            8
 
 POTCAR:    PAW_PBE Ru_pv 28Jan2005               
   SHA256 =  539bee49bb4e63d8933d8244c4f66bec34c4e5cbe2759ec5d366ad1017752494 Ru_pv/POTCAR          
   COPYR  = (c) Copyright 28Jan2005 Georg Kresse                                                    
   COPYR  = This file is part of the software VASP. Any use, copying, and all other rights are regul
   COPYR  = If you do not have a valid VASP license, you may not use, copy or distribute this file. 
   VRHFIN =Ru: 4p5s4d                                                                               
   LEXCH  = PE                                                                                      
   EATOM  =  1873.4746 eV,  137.6965 Ry                                                             
                                                                                                    
   TITEL  = PAW_PBE Ru_pv 28Jan2005                                                                 
   LULTRA =        F    use ultrasoft PP ?                                                          
   IUNSCR =        1    unscreen: 0-lin 1-nonlin 2-no                                               
   RPACOR =    2.170    partial core radius                                                         
   POMASS =  101.070; ZVAL   =   14.000    mass and valenz                                          
   RCORE  =    2.500    outmost cutoff radius                                                       
   RWIGS  =    2.650; RWIGS  =    1.402    wigner-seitz radius (au A)                               
   ENMAX  =  240.049; ENMIN  =  180.037 eV                                                          
   ICORE  =        3    local potential                                                             
   LCOR   =        T    correct aug charges                                                         
   LPAW   =        T    paw PP                                                                      
   EAUG   =  430.792                                                                                
   DEXC   =    0.000                                                                                
   RMAX   =    2.546    core radius for proj-oper                                                   
   RAUG   =    1.300    factor for augmentation sphere                                              
   RDEP   =    2.520    radius for radial grids                                                     
   RDEPT  =    2.044    core radius for aug-charge                                                  
                                                                                                    
   Atomic configuration                                                                             
   11 entries                                                                                       
     n  l   j            E        occ.                                                              
     1  0  0.50    -21933.2692   2.0000                                                             
     2  0  0.50     -3153.4096   2.0000                                                             
     2  1  1.50     -2823.9548   6.0000                                                             
     3  0  0.50      -555.3322   2.0000                                                             
     3  1  1.50      -447.1024   6.0000                                                             
     3  2  2.50      -273.0570  10.0000                                                             
     4  0  0.50       -76.3589   2.0000                                                             
     4  1  1.50       -46.4050   6.0000                                                             
     4  2  2.50        -5.2029   7.0000                                                             
     5  0  0.50        -4.2392   1.0000                                                             
     4  3  2.50        -1.3606   0.0000                                                             
   Description                                                                                      
     l       E           TYP  RCUT    TYP  RCUT                                                     
     1    -46.4050190     23  2.100                                                                 
     1      4.0817478     23  2.100                                                                 
     2     -5.2028758     23  2.500                                                                 
     2     -6.5634584     23  2.500                                                                 
     0     -4.2392192     23  2.500                                                                 
     0      7.0918828     23  2.500                                                                 
     3     -5.4423304     23  2.500                                                                 
  local pseudopotential read in
  partial core-charges read in
  partial kinetic energy density read in
  atomic valenz-charges read in
  non local Contribution for L=            1  read in
    real space projection operators read in
  non local Contribution for L=            1  read in
    real space projection operators read in
  non local Contribution for L=            2  read in
    real space projection operators read in
  non local Contribution for L=            2  read in
    real space projection operators read in
  non local Contribution for L=            0  read in
    real space projection operators read in
  non local Contribution for L=            0  read in
    real space projection operators read in
    PAW grid and wavefunctions read in
 
   number of l-projection  operators is LMAX  =            6
   number of lm-projection operators is LMMAX =           18
 
 Optimization of the real space projectors (new method)

 maximal supplied QI-value         = 13.42
 optimisation between [QCUT,QGAM] = [ 11.67, 23.35] = [ 38.16,152.62] Ry 
 Optimized for a Real-space Cutoff    1.63 Angstroem

   l    n(q)    QCUT    max X(q) W(low)/X(q) W(high)/X(q)  e(spline) 
   0     11    11.673    10.400    0.14E-04    0.18E-05    0.24E-07
   0     11    11.673    10.768    0.21E-04    0.32E-05    0.49E-07
   1     11    11.673     4.094    0.40E-05    0.13E-04    0.93E-07
   1     11    11.673     4.009    0.11E-04    0.46E-04    0.33E-06
   2     10    11.673    29.030    0.79E-04    0.60E-04    0.70E-06
   2     10    11.673    19.941    0.80E-04    0.60E-04    0.71E-06
   3     10    11.673    88.889    0.23E-03    0.29E-03    0.30E-06
   3     10    11.673    76.102    0.23E-03    0.30E-03    0.30E-06
 Optimization of the real space projectors (new method)

 maximal supplied QI-value         = 22.11
 optimisation between [QCUT,QGAM] = [ 11.50, 23.22] = [ 37.02,150.92] Ry 
 Optimized for a Real-space Cutoff    1.21 Angstroem

   l    n(q)    QCUT    max X(q) W(low)/X(q) W(high)/X(q)  e(spline) 
   0      8    11.497    53.033    0.18E-03    0.30E-03    0.10E-06
   0      8    11.497    34.740    0.17E-03    0.29E-03    0.10E-06
   1      8    11.497    30.949    0.20E-03    0.12E-03    0.21E-06
   1      8    11.497    19.518    0.18E-03    0.11E-03    0.19E-06
 Optimization of the real space projectors (new method)

 maximal supplied QI-value         = 15.12
 optimisation between [QCUT,QGAM] = [ 11.64, 23.28] = [ 37.95,151.78] Ry 
 Optimized for a Real-space Cutoff    1.49 Angstroem

   l    n(q)    QCUT    max X(q) W(low)/X(q) W(high)/X(q)  e(spline) 
   1     10    11.641     3.180    0.30E-04    0.36E-05    0.54E-07
   1     10    11.641     5.351    0.12E-03    0.51E-04    0.30E-06
   2      9    11.641    66.565    0.22E-03    0.78E-04    0.20E-06
   2      9    11.641    63.466    0.22E-03    0.79E-04    0.20E-06
   0     10    11.641    85.644    0.61E-04    0.23E-04    0.12E-06
   0     10    11.641    44.119    0.56E-04    0.21E-04    0.11E-06
  PAW_PBE Eu 23Dec2003                  :
 energy of atom  1       EATOM=-2619.8085
 kinetic energy error for atom=    0.0015 (will be added to EATOM!!)
  PAW_PBE B 06Sep2000                   :
 energy of atom  2       EATOM=  -71.1703
 kinetic energy error for atom=    0.0011 (will be added to EATOM!!)
  PAW_PBE Ru_pv 28Jan2005               :
 energy of atom  3       EATOM=-1873.4746
 kinetic energy error for atom=    0.0068 (will be added to EATOM!!)
 
 
 POSCAR: Eu4 B16 Ru16
  positions in direct lattice
  No initial velocities read in
 exchange correlation table for  LEXCH =        8
   RHO(1)=    0.500       N(1)  =     2000
   RHO(2)=  100.500       N(2)  =     4000

 VTST: version 4.2, (08/11/21)

 CHAIN: initializing optimizer
 
 OPT: Using VASP Conjugate-Gradient optimizer
 CHAIN: Read ICHAIN             0
 
 POSCAR: Eu4 B16 Ru16
  positions in direct lattice
  No initial velocities read in
 


--------------------------------------------------------------------------------------------------------


 ion  position               nearest neighbor table
   1  0.125  0.375  0.250-  30 2.94  36 2.94  21 2.94  27 2.94  34 3.18  32 3.18  25 3.18  23 3.18
                            35 3.25  22 3.25  29 3.25  28 3.25
   2  0.625  0.875  0.250-  28 2.94  29 2.94  22 2.94  35 2.94  31 3.18  26 3.18  33 3.18  24 3.18
                            30 3.25  36 3.25  27 3.25  21 3.25
   3  0.875  0.625  0.750-  32 2.94  34 2.94  23 2.94  25 2.94  30 3.18  36 3.18  21 3.18  27 3.18
                            31 3.25  26 3.25  24 3.25  33 3.25
   4  0.375  0.125  0.750-  24 2.94  33 2.94  31 2.94  26 2.94  22 3.18  35 3.18  29 3.18  28 3.18
                            34 3.25  32 3.25  23 3.25  25 3.25
   5  0.787  0.345  0.912-  17 1.80  25 2.15  31 2.18  34 2.22  33 2.31  21 2.31
   6  0.626  0.845  0.912-  18 1.80  26 2.15  32 2.18  33 2.22  34 2.31  22 2.31
   7  0.845  0.287  0.412-  12 1.80  27 2.15  22 2.18  36 2.22  28 2.31  23 2.31
   8  0.068  0.787  0.412-  11 1.80  28 2.15  21 2.18  35 2.22  27 2.31  24 2.31
   9  0.213  0.655  0.088-  13 1.80  21 2.15  35 2.18  30 2.22  29 2.31  25 2.31
  10  0.374  0.155  0.088-  14 1.80  22 2.15  36 2.18  29 2.22  30 2.31  26 2.31
  11  0.155  0.713  0.588-   8 1.80  23 2.15  26 2.18  32 2.22  24 2.31  27 2.31
  12  0.932  0.213  0.588-   7 1.80  24 2.15  25 2.18  31 2.22  23 2.31  28 2.31
  13  0.287  0.568  0.912-   9 1.80  33 2.15  23 2.18  26 2.22  25 2.31  29 2.31
  14  0.126  0.068  0.912-  10 1.80  34 2.15  24 2.18  25 2.22  26 2.31  30 2.31
  15  0.345  0.126  0.412-  20 1.80  35 2.15  30 2.18  28 2.22  36 2.31  31 2.31
  16  0.568  0.626  0.412-  19 1.80  36 2.15  29 2.18  27 2.22  35 2.31  32 2.31
  17  0.713  0.432  0.088-   5 1.80  29 2.15  27 2.18  22 2.22  21 2.31  33 2.31
  18  0.874  0.932  0.088-   6 1.80  30 2.15  28 2.18  21 2.22  22 2.31  34 2.31
  19  0.655  0.874  0.588-  16 1.80  31 2.15  34 2.18  24 2.22  32 2.31  35 2.31
  20  0.432  0.374  0.588-  15 1.80  32 2.15  33 2.18  23 2.22  31 2.31  36 2.31
  21  0.949  0.664  0.126-   9 2.15   8 2.18  18 2.22  17 2.31   5 2.31  35 2.74  28 2.74  33 2.80
                            30 2.82   1 2.94  25 2.99  27 3.15   3 3.18   2 3.25
  22  0.677  0.164  0.126-  10 2.15   7 2.18  17 2.22  18 2.31   6 2.31  27 2.74  36 2.74  34 2.80
                            29 2.82   2 2.94  26 2.99  28 3.15   4 3.18   1 3.25
  23  0.164  0.449  0.626-  11 2.15  13 2.18  20 2.22  12 2.31   7 2.31  26 2.74  33 2.74  28 2.80
                            32 2.82   3 2.94  27 2.99  25 3.15   1 3.18   4 3.25
  24  0.962  0.949  0.626-  12 2.15  14 2.18  19 2.22  11 2.31   8 2.31  25 2.74  34 2.74  27 2.80
                            31 2.82   4 2.94  28 2.99  26 3.15   2 3.18   3 3.25
  25  0.051  0.336  0.874-   5 2.15  12 2.18  14 2.22  13 2.31   9 2.31  31 2.74  24 2.74  29 2.80
                            34 2.82   3 2.94  21 2.99  23 3.15   1 3.18   4 3.25
  26  0.323  0.836  0.874-   6 2.15  11 2.18  13 2.22  14 2.31  10 2.31  23 2.74  32 2.74  30 2.80
                            33 2.82   4 2.94  22 2.99  24 3.15   2 3.18   3 3.25
  27  0.836  0.551  0.374-   7 2.15  17 2.18  16 2.22   8 2.31  11 2.31  22 2.74  29 2.74  24 2.80
                            36 2.82   1 2.94  23 2.99  21 3.15   3 3.18   2 3.25
  28  0.038  0.051  0.374-   8 2.15  18 2.18  15 2.22   7 2.31  12 2.31  21 2.74  30 2.74  23 2.80
                            35 2.82   2 2.94  24 2.99  22 3.15   4 3.18   1 3.25
  29  0.449  0.462  0.126-  17 2.15  16 2.18  10 2.22   9 2.31  13 2.31  27 2.74  36 2.74  25 2.80
                            22 2.82   2 2.94  33 2.99  35 3.15   4 3.18   1 3.25
  30  0.177  0.962  0.126-  18 2.15  15 2.18   9 2.22  10 2.31  14 2.31  35 2.74  28 2.74  26 2.80
                            21 2.82   1 2.94  34 2.99  36 3.15   3 3.18   2 3.25
  31  0.664  0.177  0.626-  19 2.15   5 2.18  12 2.22  20 2.31  15 2.31  25 2.74  34 2.74  36 2.80
                            24 2.82   4 2.94  35 2.99  33 3.15   2 3.18   3 3.25
  32  0.462  0.677  0.626-  20 2.15   6 2.18  11 2.22  19 2.31  16 2.31  26 2.74  33 2.74  35 2.80
                            23 2.82   3 2.94  36 2.99  34 3.15   1 3.18   4 3.25
  33  0.551  0.538  0.874-  13 2.15  20 2.18   6 2.22   5 2.31  17 2.31  23 2.74  32 2.74  21 2.80
                            26 2.82   4 2.94  29 2.99  31 3.15   2 3.18   3 3.25
  34  0.823  0.038  0.874-  14 2.15  19 2.18   5 2.22   6 2.31  18 2.31  31 2.74  24 2.74  22 2.80
                            25 2.82   3 2.94  30 2.99  32 3.15   1 3.18   4 3.25
  35  0.336  0.823  0.374-  15 2.15   9 2.18   8 2.22  16 2.31  19 2.31  21 2.74  30 2.74  32 2.80
                            28 2.82   2 2.94  31 2.99  29 3.15   4 3.18   1 3.25
  36  0.538  0.323  0.374-  16 2.15  10 2.18   7 2.22  15 2.31  20 2.31  22 2.74  29 2.74  31 2.80
                            27 2.82   1 2.94  32 2.99  30 3.15   3 3.18   2 3.25
 
  LATTYP: Found a body centered tetragonal cell.
 ALAT       =     7.5291618900
 C/A-ratio  =     2.0099884159
  
  Lattice vectors:
  
 A1 = (   3.7645813800,  -3.7645805100,  -7.5667640900)
 A2 = (  -3.7645805100,   3.7645813800,  -7.5667640900)
 A3 = (   3.7645805100,   3.7645805100,   7.5667641200)


Analysis of symmetry for initial positions (statically):
=====================================================================
 Subroutine PRICEL returns:
 Original cell was already a primitive cell.
 

 Routine SETGRP: Setting up the symmetry group for a 
 body centered tetragonal supercell.


 Subroutine GETGRP returns: Found 16 space group operations
 (whereof  2 operations were pure point group operations)
 out of a pool of 16 trial point group operations.


The static configuration has the point symmetry S_2 .
 The point group associated with its full space group is D_4h.


Analysis of symmetry for dynamics (positions and initial velocities):
=====================================================================
 Subroutine PRICEL returns:
 Original cell was already a primitive cell.
 

 Routine SETGRP: Setting up the symmetry group for a 
 body centered tetragonal supercell.


 Subroutine GETGRP returns: Found 16 space group operations
 (whereof  2 operations were pure point group operations)
 out of a pool of 16 trial point group operations.


The dynamic configuration has the point symmetry S_2 .
 The point group associated with its full space group is D_4h.


Analysis of structural, dynamic, and magnetic symmetry:
=====================================================================
 Subroutine PRICEL returns:
 Original cell was already a primitive cell.
 

 Routine SETGRP: Setting up the symmetry group for a 
 body centered tetragonal supercell.


 Subroutine GETGRP returns: Found 16 space group operations
 (whereof  2 operations were pure point group operations)
 out of a pool of 16 trial point group operations.


The overall configuration has the point symmetry S_2 .
 The point group associated with its full space group is D_4h.


 Subroutine INISYM returns: Found 16 space group operations
 (whereof  2 operations are pure point group operations),
 and found     1 'primitive' translations


----------------------------------------------------------------------------------------

                                     Primitive cell                                     

  volume of cell :     428.9468

  direct lattice vectors                    reciprocal lattice vectors
     7.529161890 -0.000000000  0.000000030     0.132816907 -0.000000000  0.066078452
    -0.000000000  7.529161890  0.000000030    -0.000000000  0.132816907  0.066078452
    -3.764581380 -3.764581380  7.566764060    -0.000000001 -0.000000001  0.132156889

  length of vectors
     7.529161890  7.529161890  9.252030278     0.148346529  0.148346529  0.132156889

  position of ions in fractional coordinates (direct lattice)
     0.125000000  0.375000000  0.250000000
     0.625000000  0.875000000  0.250000000
     0.875000000  0.625000000  0.750000000
     0.375000000  0.125000000  0.750000000
     0.786860640  0.344720590  0.912452090
     0.625591450  0.844720590  0.912452090
     0.844720590  0.286860640  0.412452090
     0.067731490  0.786860640  0.412452090
     0.213139360  0.655279410  0.087547910
     0.374408550  0.155279410  0.087547910
     0.155279410  0.713139360  0.587547910
     0.932268510  0.213139360  0.587547910
     0.286860640  0.567731490  0.912452090
     0.125591450  0.067731490  0.912452090
     0.344720590  0.125591450  0.412452090
     0.567731490  0.625591450  0.412452090
     0.713139360  0.432268510  0.087547910
     0.874408550  0.932268510  0.087547910
     0.655279410  0.874408550  0.587547910
     0.432268510  0.374408550  0.587547910
     0.949043290  0.664482420  0.126137360
     0.677094070  0.164482420  0.126137360
     0.164482420  0.449043290  0.626137360
     0.961654950  0.949043290  0.626137360
     0.050956710  0.335517580  0.873862640
     0.322905930  0.835517580  0.873862640
     0.835517580  0.550956710  0.373862640
     0.038345050  0.050956710  0.373862640
     0.449043290  0.461654950  0.126137360
     0.177094070  0.961654950  0.126137360
     0.664482420  0.177094070  0.626137360
     0.461654950  0.677094070  0.626137360
     0.550956710  0.538345050  0.873862640
     0.822905930  0.038345050  0.873862640
     0.335517580  0.822905930  0.373862640
     0.538345050  0.322905930  0.373862640

  ion indices of the primitive-cell ions
   primitive index   ion index
                 1           1
                 2           2
                 3           3
                 4           4
                 5           5
                 6           6
                 7           7
                 8           8
                 9           9
                10          10
                11          11
                12          12
                13          13
                14          14
                15          15
                16          16
                17          17
                18          18
                19          19
                20          20
                21          21
                22          22
                23          23
                24          24
                25          25
                26          26
                27          27
                28          28
                29          29
                30          30
                31          31
                32          32
                33          33
                34          34
                35          35
                36          36

----------------------------------------------------------------------------------------

 
 
 KPOINTS: Kpoints from vasprun.xml                

Automatic generation of k-mesh.
 Grid dimensions read from file:
 generate k-points for:    3    3    3

 Generating k-lattice:

  Cartesian coordinates                     Fractional coordinates (reciprocal lattice)
     0.044272302 -0.000000000  0.022026151     0.333333333 -0.000000000  0.000000000
    -0.000000000  0.044272302  0.022026151    -0.000000000  0.333333333  0.000000000
    -0.000000000 -0.000000000  0.044052296     0.000000000  0.000000000  0.333333333

  Length of vectors
     0.049448843  0.049448843  0.044052296

  Shift w.r.t. Gamma in fractional coordinates (k-lattice)
     0.000000000  0.000000000  0.000000000

 TETIRR: Found     25 inequivalent tetrahedra from      162
 
 Subroutine IBZKPT returns following result:
 ===========================================
 
 Found      6 irreducible k-points:
 
 Following reciprocal coordinates:
            Coordinates               Weight
  0.000000  0.000000  0.000000      1.000000
  0.333333  0.000000  0.000000      8.000000
  0.333333  0.333333  0.000000      8.000000
 -0.333333  0.333333  0.000000      4.000000
  0.000000  0.000000  0.333333      2.000000
  0.333333  0.000000  0.333333      4.000000
 
 Following cartesian coordinates:
            Coordinates               Weight
  0.000000  0.000000  0.000000      1.000000
  0.044272 -0.000000  0.022026      8.000000
  0.044272  0.044272  0.044052      8.000000
 -0.044272  0.044272  0.000000      4.000000
 -0.000000 -0.000000  0.044052      2.000000
  0.044272 -0.000000  0.066078      4.000000
 


--------------------------------------------------------------------------------------------------------




 Dimension of arrays:
   k-points           NKPTS =      6   k-points in BZ     NKDIM =      6   number of bands    NBANDS=    228
   number of dos      NEDOS =    301   number of ions     NIONS =     36
   non local maximal  LDIM  =      8   non local SUM 2l+1 LMDIM =     32
   total plane-waves  NPLWV = 219520
   max r-space proj   IRMAX =   9286   max aug-charges    IRDMAX=  29453
   dimension x,y,z NGX =    56 NGY =   56 NGZ =   70
   dimension x,y,z NGXF=   112 NGYF=  112 NGZF=  140
   support grid    NGXF=   112 NGYF=  112 NGZF=  140
   ions per type =               4  16  16
   NGX,Y,Z   is equivalent  to a cutoff of  12.36, 12.36, 12.58 a.u.
   NGXF,Y,Z  is equivalent  to a cutoff of  24.73, 24.73, 25.16 a.u.

 SYSTEM =  unknown system                          
 POSCAR =  Eu4 B16 Ru16                            

 Startparameter for this run:
   NWRITE =      2    write-flag & timer
   PREC   = accura    normal or accurate (medium, high low for compatibility)
   ISTART =      0    job   : 0-new  1-cont  2-samecut
   ICHARG =      1    charge: 1-file 2-atom 10-const
   ISPIN  =      2    spin polarized calculation?
   LNONCOLLINEAR =      F non collinear calculations
   LSORBIT =      F    spin-orbit coupling
   INIWAV =      1    electr: 0-lowe 1-rand  2-diag
   LASPH  =      F    aspherical Exc in radial PAW
 Electronic Relaxation 1
   ENCUT  =  520.0 eV  38.22 Ry    6.18 a.u.  14.00 14.00 17.20*2*pi/ulx,y,z
   ENINI  =  520.0     initial cutoff
   ENAUG  =  549.6 eV  augmentation charge cutoff
   NELM   =   1000;   NELMIN=  2; NELMDL=  0     # of ELM steps 
   EDIFF  = 0.2E-02   stopping-criterion for ELM
   LREAL  =      T    real-space projection
   NLSPLINE    = F    spline interpolate recip. space projectors
   LCOMPAT=      F    compatible to vasp.4.4
   GGA_COMPAT  = T    GGA compatible to vasp.4.4-vasp.4.6
   LMAXPAW     = -100 max onsite density
   LMAXMIX     =    2 max onsite mixed and CHGCAR
   VOSKOWN=      0    Vosko Wilk Nusair interpolation
   ROPT   =   -0.00025  -0.00025  -0.00025
 Ionic relaxation
   EDIFFG = 0.2E-01   stopping-criterion for IOM
   NSW    =     99    number of steps for IOM
   NBLOCK =      1;   KBLOCK =     99    inner block; outer block 
   IBRION =      2    ionic relax: 0-MD 1-quasi-New 2-CG
   NFREE  =      1    steps in history (QN), initial steepest desc. (CG)
   ISIF   =      3    stress and relaxation
   IWAVPR =     11    prediction:  0-non 1-charg 2-wave 3-comb
   ISYM   =      2    0-nonsym 1-usesym 2-fastsym
   LCORR  =      T    Harris-Foulkes like correction to forces

   POTIM  = 0.2500    time-step for ionic-motion
   TEIN   =    0.0    initial temperature
   TEBEG  =    0.0;   TEEND  =   0.0 temperature during run
   SMASS  =  -3.00    Nose mass-parameter (am)
   estimated Nose-frequenzy (Omega)   =  0.10E-29 period in steps = 0.25E+47 mass=  -0.130E-26a.u.
   SCALEE = 1.0000    scale energy and forces
   NPACO  =    256;   APACO  = 10.0  distance and # of slots for P.C.
   PSTRESS=    0.0 pullay stress

  Mass of Ions in am
   POMASS = 151.97 10.81101.07
  Ionic Valenz
   ZVAL   =  17.00  3.00 14.00
  Atomic Wigner-Seitz radii
   RWIGS  =  -1.00 -1.00 -1.00
  virtual crystal weights 
   VCA    =   1.00  1.00  1.00
   NELECT =     340.0000    total number of electrons
   NUPDOWN=      -1.0000    fix difference up-down

 DOS related values:
   EMIN   =  10.00;   EMAX   =-10.00  energy-range for DOS
   EFERMI =   0.00
   ISMEAR =    -5;   SIGMA  =   0.05  broadening in eV -4-tet -1-fermi 0-gaus

 Electronic relaxation 2 (details)
   IALGO  =     38    algorithm
   LDIAG  =      T    sub-space diagonalisation (order eigenvalues)
   LSUBROT=      F    optimize rotation matrix (better conditioning)
   TURBO    =      0    0=normal 1=particle mesh
   IRESTART =      0    0=no restart 2=restart with 2 vectors
   NREBOOT  =      0    no. of reboots
   NMIN     =      0    reboot dimension
   EREF     =   0.00    reference energy to select bands
   IMIX   =      4    mixing-type and parameters
     AMIX     =   0.40;   BMIX     =  1.00
     AMIX_MAG =   1.60;   BMIX_MAG =  1.00
     AMIN     =   0.10
     WC   =   100.;   INIMIX=   1;  MIXPRE=   1;  MAXMIX= -45

 Intra band minimization:
   WEIMIN = 0.0010     energy-eigenvalue tresh-hold
   EBREAK =  0.20E-05  absolut break condition
   DEPER  =   0.30     relativ break condition  

   TIME   =   0.40     timestep for ELM

  volume/ion in A,a.u.               =      11.92        80.41
  Fermi-wavevector in a.u.,A,eV,Ry     =   1.515072  2.863071 31.231406  2.295444
  Thomas-Fermi vector in A             =   2.624645
 
 Write flags
   LWAVE        =      F    write WAVECAR
   LDOWNSAMPLE  =      F    k-point downsampling of WAVECAR
   LCHARG       =      T    write CHGCAR
   LVTOT        =      F    write LOCPOT, total local potential
   LVHAR        =      F    write LOCPOT, Hartree potential only
   LELF         =      F    write electronic localiz. function (ELF)
   LORBIT       =     11    0 simple, 1 ext, 2 COOP (PROOUT), +10 PAW based schemes


 Dipole corrections
   LMONO  =      F    monopole corrections only (constant potential shift)
   LDIPOL =      F    correct potential (dipole corrections)
   IDIPOL =      0    1-x, 2-y, 3-z, 4-all directions 
   EPSILON=  1.0000000 bulk dielectric constant

 Exchange correlation treatment:
   GGA     =    --    GGA type
   LEXCH   =     8    internal setting for exchange type
   LIBXC   =     F    Libxc                    
   VOSKOWN =     0    Vosko Wilk Nusair interpolation
   LHFCALC =     F    Hartree Fock is set to
   LHFONE  =     F    Hartree Fock one center treatment
   AEXX    =    0.0000 exact exchange contribution

 Linear response parameters
   LEPSILON=     F    determine dielectric tensor
   LRPA    =     F    only Hartree local field effects (RPA)
   LNABLA  =     F    use nabla operator in PAW spheres
   LVEL    =     F    velocity operator in full k-point grid
   CSHIFT  =0.1000    complex shift for real part using Kramers Kronig
   OMEGAMAX=  -1.0    maximum frequency
   DEG_THRESHOLD= 0.2000000E-02 threshold for treating states as degnerate
   RTIME   =   -0.100 relaxation time in fs
  (WPLASMAI=    0.000 imaginary part of plasma frequency in eV, 0.658/RTIME)
   DFIELD  = 0.0000000 0.0000000 0.0000000 field for delta impulse in time
 
  Optional k-point grid parameters
   LKPOINTS_OPT  =     F    use optional k-point grid
   KPOINTS_OPT_MODE=     1    mode for optional k-point grid
 
 Orbital magnetization related:
   ORBITALMAG=     F  switch on orbital magnetization
   LCHIMAG   =     F  perturbation theory with respect to B field
   DQ        =  0.001000  dq finite difference perturbation B field
   LLRAUG    =     F  two centre corrections for induced B field



--------------------------------------------------------------------------------------------------------


 conjugate gradient relaxation of ions
 charge density and potential will be updated during run
 spin polarized calculation
 Variant of blocked Davidson
 Davidson routine will perform the subspace rotation
 perform sub-space diagonalisation
    after iterative eigenvector-optimisation
 modified Broyden-mixing scheme, WC =      100.0
 initial mixing is a Kerker type mixing with AMIX =  0.4000 and BMIX =      1.0000
 Hartree-type preconditioning will be used
 using additional bands            58
 real space projection scheme for non local part
 use partial core corrections
 calculate Harris-corrections to forces 
   (improved forces if not selfconsistent)
 use gradient corrections 
 use of overlap-Matrix (Vanderbilt PP)
 Fermi weights with tetrahedron method with Bloechl corrections


--------------------------------------------------------------------------------------------------------


  energy-cutoff  :      520.00
  volume of cell :      428.95
      direct lattice vectors                 reciprocal lattice vectors
     7.529161890 -0.000000000  0.000000030     0.132816907 -0.000000000  0.066078452
    -0.000000000  7.529161890  0.000000030    -0.000000000  0.132816907  0.066078452
    -3.764581380 -3.764581380  7.566764060    -0.000000001 -0.000000001  0.132156889

  length of vectors
     7.529161890  7.529161890  9.252030278     0.148346529  0.148346529  0.132156889


 
 k-points in units of 2pi/SCALE and weight: Kpoints from vasprun.xml                
   0.00000000  0.00000000  0.00000000       0.037
   0.04427230 -0.00000000  0.02202615       0.296
   0.04427230  0.04427230  0.04405230       0.296
  -0.04427230  0.04427230  0.00000000       0.148
  -0.00000000 -0.00000000  0.04405230       0.074
   0.04427230 -0.00000000  0.06607845       0.148
 
 k-points in reciprocal lattice and weights: Kpoints from vasprun.xml                
   0.00000000  0.00000000  0.00000000       0.037
   0.33333333  0.00000000  0.00000000       0.296
   0.33333333  0.33333333  0.00000000       0.296
  -0.33333333  0.33333333  0.00000000       0.148
   0.00000000  0.00000000  0.33333333       0.074
   0.33333333  0.00000000  0.33333333       0.148
 
 position of ions in fractional coordinates (direct lattice) 
   0.12500000  0.37500000  0.25000000
   0.62500000  0.87500000  0.25000000
   0.87500000  0.62500000  0.75000000
   0.37500000  0.12500000  0.75000000
   0.78686064  0.34472059  0.91245209
   0.62559145  0.84472059  0.91245209
   0.84472059  0.28686064  0.41245209
   0.06773149  0.78686064  0.41245209
   0.21313936  0.65527941  0.08754791
   0.37440855  0.15527941  0.08754791
   0.15527941  0.71313936  0.58754791
   0.93226851  0.21313936  0.58754791
   0.28686064  0.56773149  0.91245209
   0.12559145  0.06773149  0.91245209
   0.34472059  0.12559145  0.41245209
   0.56773149  0.62559145  0.41245209
   0.71313936  0.43226851  0.08754791
   0.87440855  0.93226851  0.08754791
   0.65527941  0.87440855  0.58754791
   0.43226851  0.37440855  0.58754791
   0.94904329  0.66448242  0.12613736
   0.67709407  0.16448242  0.12613736
   0.16448242  0.44904329  0.62613736
   0.96165495  0.94904329  0.62613736
   0.05095671  0.33551758  0.87386264
   0.32290593  0.83551758  0.87386264
   0.83551758  0.55095671  0.37386264
   0.03834505  0.05095671  0.37386264
   0.44904329  0.46165495  0.12613736
   0.17709407  0.96165495  0.12613736
   0.66448242  0.17709407  0.62613736
   0.46165495  0.67709407  0.62613736
   0.55095671  0.53834505  0.87386264
   0.82290593  0.03834505  0.87386264
   0.33551758  0.82290593  0.37386264
   0.53834505  0.32290593  0.37386264
 
 position of ions in cartesian coordinates  (Angst):
  -0.00000011  1.88229036  1.89169103
   3.76458084  5.64687131  1.89169106
   3.76458062  1.88229015  5.67507309
  -0.00000033 -1.88229080  5.67507306
   2.48940100 -0.83954302  6.90430972
   1.27517916  2.92503793  6.90430973
   4.80732862  0.60711074  3.12092769
  -1.04274810  4.37169169  3.12092768
   1.27517951  4.60412353  0.66245440
   2.48940135  0.83954258  0.66245439
  -1.04274811  3.15746977  4.44583643
   4.80732861 -0.60711118  4.44583644
  -1.27517995  0.83954215  6.90430971
  -2.48940179 -2.92503879  6.90430969
   1.04274767 -0.60711110  3.12092767
   2.72183284  3.15746985  3.12092769
   5.03976046  2.92503836  0.66245441
   6.25398230  6.68961930  0.66245443
   2.72183284  4.37169161  4.44583645
   1.04274767  0.60711066  4.44583643
   6.67064621  4.52814136  0.95445169
   4.62309651  0.76356041  0.95445167
  -1.11873028  1.02377458  4.73783369
   4.88331075  4.78835552  4.73783373
  -2.90606570 -0.76356085  6.61231243
  -0.85851600  3.00102010  6.61231245
   4.88331079  2.74080593  2.82893043
  -1.11873024 -1.02377501  2.82893039
   2.90606527  3.00102050  0.95445167
   0.85851557  6.76560144  0.95445168
   2.64585067 -1.02377512  4.73783370
   1.11872981  2.74080582  4.73783371
   0.85851524  0.76356001  6.61231245
   2.90606494 -3.00102093  6.61231244
   1.11872984  4.78835563  2.82893042
   2.64585070  1.02377469  2.82893041
 


--------------------------------------------------------------------------------------------------------


 k-point   1 :   0.0000 0.0000 0.0000  plane waves:   11553
 k-point   2 :   0.3333 0.0000 0.0000  plane waves:   11550
 k-point   3 :   0.3333 0.3333 0.0000  plane waves:   11561
 k-point   4 :  -0.3333 0.3333 0.0000  plane waves:   11554
 k-point   5 :   0.0000 0.0000 0.3333  plane waves:   11532
 k-point   6 :   0.3333 0.0000 0.3333  plane waves:   11530

 maximum and minimum number of plane-waves per node :     11561    11530

 maximum number of plane-waves:     11561
 maximum index in each direction: 
   IXMAX=   14   IYMAX=   13   IZMAX=   17
   IXMIN=  -14   IYMIN=  -14   IZMIN=  -17


 serial   3D FFT for wavefunctions
 parallel 3D FFT for charge:
    minimum data exchange during FFTs selected (reduces bandwidth)


 total amount of memory used by VASP MPI-rank0   276018. kBytes
=======================================================================

   base      :      30000. kBytes
   nonlr-proj:      37396. kBytes
   fftplans  :      15826. kBytes
   grid      :      56749. kBytes
   one-center:       3538. kBytes
   wavefun   :     132509. kBytes
 
     INWAV:  cpu time      0.0001: real time      0.0003
 Broyden mixing: mesh for mixing (old mesh)
   NGX = 27   NGY = 27   NGZ = 35
  (NGX  =112   NGY  =112   NGZ  =140)
  gives a total of  25515 points

 initial charge density was supplied:
 charge density of overlapping atoms calculated
 number of electron     340.0000000 magnetization      47.2000000
 keeping initial charge density in first step


--------------------------------------------------------------------------------------------------------


 Maximum index for non-local projection operator          9002
 Maximum index for augmentation-charges          7122 (set IRDMAX)


--------------------------------------------------------------------------------------------------------


 First call to EWALD:  gamma=   0.235
 Maximum number of real-space cells 3x 3x 3
 Maximum number of reciprocal cells 3x 3x 3

    FEWALD:  cpu time      0.0024: real time      0.0024


--------------------------------------- Iteration      1(   1)  ---------------------------------------


    POTLOK:  cpu time      0.1149: real time      0.1489
    SETDIJ:  cpu time      0.0483: real time      0.0483
     EDDAV:  cpu time      4.0463: real time      4.0528
 BZINTS: Fermi energy:   35.312299;  340.000000 electrons
         Band energy: 0.359892E+04;  BLOECHL correction:   -0.916430
       DOS:  cpu time      0.0491: real time      0.0492
    --------------------------------------------
      LOOP:  cpu time      4.2586: real time      4.2991

 eigenvalue-minimisations  :  9016
 total energy-change (2. order) : 0.5325737E+04  (-0.1452519E+05)
 number of electron     340.0000000 magnetization      47.2000000
 augmentation part      340.0000000 magnetization      47.2000000

 Free energy of the ion-electron system (eV)
  ---------------------------------------------------
  alpha Z        PSCENC =      2808.04064199
  Ewald energy   TEWEN  =    -35356.50030098
  -Hartree energ DENC   =     -8387.75267882
  -exchange      EXHF   =         0.00000000
  -V(xc)+E(xc)   XCENC  =      1395.30329433
  PAW double counting   =     34651.33950439   -34977.03880275
  entropy T*S    EENTRO =         0.00000000
  eigenvalues    EBANDS =      3598.92493386
  atomic energy  EATOM  =     41593.41992327
  Solvation  Ediel_sol  =         0.00000000
  ---------------------------------------------------
  free energy    TOTEN  =      5325.73651530 eV

  energy without entropy =     5325.73651530  energy(sigma->0) =     5325.73651530


--------------------------------------------------------------------------------------------------------




--------------------------------------- Iteration      1(   2)  ---------------------------------------


     EDDAV:  cpu time      3.1943: real time      3.1978
 BZINTS: Fermi energy:   18.107986;  340.000000 electrons
         Band energy:-0.947554E+03;  BLOECHL correction:   -0.476471
       DOS:  cpu time      0.0494: real time      0.0494
    --------------------------------------------
      LOOP:  cpu time      3.2436: real time      3.2472

 eigenvalue-minimisations  :  6952
 total energy-change (2. order) :-0.4546479E+04  (-0.4192202E+04)
 number of electron     340.0000000 magnetization      47.2000000
 augmentation part      340.0000000 magnetization      47.2000000

 Free energy of the ion-electron system (eV)
  ---------------------------------------------------
  alpha Z        PSCENC =      2808.04064199
  Ewald energy   TEWEN  =    -35356.50030098
  -Hartree energ DENC   =     -8387.75267882
  -exchange      EXHF   =         0.00000000
  -V(xc)+E(xc)   XCENC  =      1395.30329433
  PAW double counting   =     34651.33950439   -34977.03880275
  entropy T*S    EENTRO =         0.00000000
  eigenvalues    EBANDS =      -947.55394071
  atomic energy  EATOM  =     41593.41992327
  Solvation  Ediel_sol  =         0.00000000
  ---------------------------------------------------
  free energy    TOTEN  =       779.25764073 eV

  energy without entropy =      779.25764073  energy(sigma->0) =      779.25764073


--------------------------------------------------------------------------------------------------------




--------------------------------------- Iteration      1(   3)  ---------------------------------------


     EDDAV:  cpu time      2.9634: real time      2.9663
 BZINTS: Fermi energy:   12.992270;  340.000000 electrons
         Band energy:-0.188762E+04;  BLOECHL correction:   -0.109975
       DOS:  cpu time      0.0449: real time      0.0449
    --------------------------------------------
      LOOP:  cpu time      3.0083: real time      3.0113

 eigenvalue-minimisations  :  6288
 total energy-change (2. order) :-0.9400665E+03  (-0.7933521E+03)
 number of electron     340.0000000 magnetization      47.2000000
 augmentation part      340.0000000 magnetization      47.2000000

 Free energy of the ion-electron system (eV)
  ---------------------------------------------------
  alpha Z        PSCENC =      2808.04064199
  Ewald energy   TEWEN  =    -35356.50030098
  -Hartree energ DENC   =     -8387.75267882
  -exchange      EXHF   =         0.00000000
  -V(xc)+E(xc)   XCENC  =      1395.30329433
  PAW double counting   =     34651.33950439   -34977.03880275
  entropy T*S    EENTRO =         0.00000000
  eigenvalues    EBANDS =     -1887.62043849
  atomic energy  EATOM  =     41593.41992327
  Solvation  Ediel_sol  =         0.00000000
  ---------------------------------------------------
  free energy    TOTEN  =      -160.80885705 eV

  energy without entropy =     -160.80885705  energy(sigma->0) =     -160.80885705


--------------------------------------------------------------------------------------------------------




--------------------------------------- Iteration      1(   4)  ---------------------------------------


     EDDAV:  cpu time      3.0426: real time      3.0447
 BZINTS: Fermi energy:   12.013490;  340.000000 electrons
         Band energy:-0.206771E+04;  BLOECHL correction:   -0.033831
       DOS:  cpu time      0.0423: real time      0.0424
    --------------------------------------------
      LOOP:  cpu time      3.0849: real time      3.0870

 eigenvalue-minimisations  :  6452
 total energy-change (2. order) :-0.1800942E+03  (-0.1492164E+03)
 number of electron     340.0000000 magnetization      47.2000000
 augmentation part      340.0000000 magnetization      47.2000000

 Free energy of the ion-electron system (eV)
  ---------------------------------------------------
  alpha Z        PSCENC =      2808.04064199
  Ewald energy   TEWEN  =    -35356.50030098
  -Hartree energ DENC   =     -8387.75267882
  -exchange      EXHF   =         0.00000000
  -V(xc)+E(xc)   XCENC  =      1395.30329433
  PAW double counting   =     34651.33950439   -34977.03880275
  entropy T*S    EENTRO =         0.00000000
  eigenvalues    EBANDS =     -2067.71462479
  atomic energy  EATOM  =     41593.41992327
  Solvation  Ediel_sol  =         0.00000000
  ---------------------------------------------------
  free energy    TOTEN  =      -340.90304335 eV

  energy without entropy =     -340.90304335  energy(sigma->0) =     -340.90304335


--------------------------------------------------------------------------------------------------------




--------------------------------------- Iteration      1(   5)  ---------------------------------------


     EDDAV:  cpu time      3.9465: real time      3.9487
 BZINTS: Fermi energy:   11.688080;  340.000000 electrons
         Band energy:-0.209181E+04;  BLOECHL correction:   -0.042742
       DOS:  cpu time      0.0410: real time      0.0410
    CHARGE:  cpu time      0.1332: real time      0.1333
    MIXING:  cpu time      0.0035: real time      0.0035
    --------------------------------------------
      LOOP:  cpu time      4.1243: real time      4.1266

 eigenvalue-minimisations  :  8968
 total energy-change (2. order) :-0.2409534E+02  (-0.2237304E+02)
 number of electron     339.9999988 magnetization      21.7325320
 augmentation part       80.4661903 magnetization      15.8851600

 Broyden mixing:
  rms(total) = 0.13321E+02    rms(broyden)= 0.13321E+02
  rms(prec ) = 0.19401E+02
  weight for this iteration     100.00

 Free energy of the ion-electron system (eV)
  ---------------------------------------------------
  alpha Z        PSCENC =      2808.04064199
  Ewald energy   TEWEN  =    -35356.50030098
  -Hartree energ DENC   =     -8387.75267882
  -exchange      EXHF   =         0.00000000
  -V(xc)+E(xc)   XCENC  =      1395.30329433
  PAW double counting   =     34651.33950439   -34977.03880275
  entropy T*S    EENTRO =         0.00000000
  eigenvalues    EBANDS =     -2091.80996268
  atomic energy  EATOM  =     41593.41992327
  Solvation  Ediel_sol  =         0.00000000
  ---------------------------------------------------
  free energy    TOTEN  =      -364.99838124 eV

  energy without entropy =     -364.99838124  energy(sigma->0) =     -364.99838124


--------------------------------------------------------------------------------------------------------




--------------------------------------- Iteration      1(   6)  ---------------------------------------


    POTLOK:  cpu time      0.0115: real time      0.0120
    SETDIJ:  cpu time      0.0480: real time      0.0480
     EDDAV:  cpu time      3.8437: real time      3.8460
 BZINTS: Fermi energy:    9.413205;  340.000000 electrons
         Band energy:-0.490512E+04;  BLOECHL correction:   -0.031693
       DOS:  cpu time      0.0421: real time      0.0422
    CHARGE:  cpu time      0.1273: real time      0.1273
    MIXING:  cpu time      0.0050: real time      0.0075
    --------------------------------------------
      LOOP:  cpu time      4.0775: real time      4.0829

 eigenvalue-minimisations  :  8556
 total energy-change (2. order) :-0.1519848E+04  (-0.1325327E+03)
 number of electron     339.9999965 magnetization      19.6474094
 augmentation part      112.1892127 magnetization      10.7730385

 Broyden mixing:
  rms(total) = 0.35079E+02    rms(broyden)= 0.35079E+02
  rms(prec ) = 0.46073E+02
  weight for this iteration     100.00

 eigenvalues of (default mixing * dielectric matrix)
  average eigenvalue GAMMA=   0.2196
  0.2196

 Free energy of the ion-electron system (eV)
  ---------------------------------------------------
  alpha Z        PSCENC =      2808.04064199
  Ewald energy   TEWEN  =    -35356.50030098
  -Hartree energ DENC   =     -7353.20229206
  -exchange      EXHF   =         0.00000000
  -V(xc)+E(xc)   XCENC  =      1344.56603524
  PAW double counting   =     36329.38978052   -36345.43796405
  entropy T*S    EENTRO =         0.00000000
  eigenvalues    EBANDS =     -4905.12237396
  atomic energy  EATOM  =     41593.41992327
  Solvation  Ediel_sol  =         0.00000000
  ---------------------------------------------------
  free energy    TOTEN  =     -1884.84655002 eV

  energy without entropy =    -1884.84655002  energy(sigma->0) =    -1884.84655002


--------------------------------------------------------------------------------------------------------




--------------------------------------- Iteration      1(   7)  ---------------------------------------


    POTLOK:  cpu time      0.0106: real time      0.0112
    SETDIJ:  cpu time      0.0471: real time      0.0471
     EDDAV:  cpu time      2.9925: real time      2.9946
 BZINTS: Fermi energy:    8.024549;  340.000000 electrons
         Band energy:-0.355266E+04;  BLOECHL correction:   -0.017920
       DOS:  cpu time      0.0416: real time      0.0416
    CHARGE:  cpu time      0.1290: real time      0.1291
    MIXING:  cpu time      0.0038: real time      0.0038
    --------------------------------------------
      LOOP:  cpu time      3.2247: real time      3.2275

 eigenvalue-minimisations  :  6316
 total energy-change (2. order) : 0.1079380E+04  (-0.7658500E+02)
 number of electron     339.9999965 magnetization      16.4208420
 augmentation part      119.9051367 magnetization       9.9918702

 Broyden mixing:
  rms(total) = 0.18595E+02    rms(broyden)= 0.18595E+02
  rms(prec ) = 0.28534E+02
  weight for this iteration     100.00

 eigenvalues of (default mixing * dielectric matrix)
  average eigenvalue GAMMA=   0.4908
  0.4908  0.4908

 Free energy of the ion-electron system (eV)
  ---------------------------------------------------
  alpha Z        PSCENC =      2808.04064199
  Ewald energy   TEWEN  =    -35356.50030098
  -Hartree energ DENC   =     -7432.56834809
  -exchange      EXHF   =         0.00000000
  -V(xc)+E(xc)   XCENC  =      1348.09196694
  PAW double counting   =     37276.63428365   -37489.92097409
  entropy T*S    EENTRO =         0.00000000
  eigenvalues    EBANDS =     -3552.66339555
  atomic energy  EATOM  =     41593.41992327
  Solvation  Ediel_sol  =         0.00000000
  ---------------------------------------------------
  free energy    TOTEN  =      -805.46620286 eV

  energy without entropy =     -805.46620286  energy(sigma->0) =     -805.46620286


--------------------------------------------------------------------------------------------------------




--------------------------------------- Iteration      1(   8)  ---------------------------------------


    POTLOK:  cpu time      0.0107: real time      0.0118
    SETDIJ:  cpu time      0.0492: real time      0.0492
     EDDAV:  cpu time      3.4972: real time      3.4992
 BZINTS: Fermi energy:   10.713696;  340.000000 electrons
         Band energy:-0.247413E+04;  BLOECHL correction:   -0.016898
       DOS:  cpu time      0.0424: real time      0.0424
    CHARGE:  cpu time      0.1280: real time      0.1281
    MIXING:  cpu time      0.0043: real time      0.0043
    --------------------------------------------
      LOOP:  cpu time      3.7319: real time      3.7351

 eigenvalue-minimisations  :  7656
 total energy-change (2. order) : 0.3868931E+03  (-0.1128215E+03)
 number of electron     339.9999987 magnetization      11.0387875
 augmentation part       89.7194192 magnetization       7.7146723

 Broyden mixing:
  rms(total) = 0.10564E+02    rms(broyden)= 0.10564E+02
  rms(prec ) = 0.18221E+02
  weight for this iteration     100.00

 eigenvalues of (default mixing * dielectric matrix)
  average eigenvalue GAMMA=   0.5142
  0.8494  0.3466  0.3466

 Free energy of the ion-electron system (eV)
  ---------------------------------------------------
  alpha Z        PSCENC =      2808.04064199
  Ewald energy   TEWEN  =    -35356.50030098
  -Hartree energ DENC   =     -7923.55057594
  -exchange      EXHF   =         0.00000000
  -V(xc)+E(xc)   XCENC  =      1367.64547335
  PAW double counting   =     38534.98681173   -38968.48274851
  entropy T*S    EENTRO =         0.00000000
  eigenvalues    EBANDS =     -2474.13235728
  atomic energy  EATOM  =     41593.41992327
  Solvation  Ediel_sol  =         0.00000000
  ---------------------------------------------------
  free energy    TOTEN  =      -418.57313237 eV

  energy without entropy =     -418.57313237  energy(sigma->0) =     -418.57313237


--------------------------------------------------------------------------------------------------------




--------------------------------------- Iteration      1(   9)  ---------------------------------------


    POTLOK:  cpu time      0.0105: real time      0.0116
    SETDIJ:  cpu time      0.0482: real time      0.0482
     EDDAV:  cpu time      3.4944: real time      3.4974
 BZINTS: Fermi energy:   10.809306;  340.000000 electrons
         Band energy:-0.240204E+04;  BLOECHL correction:   -0.037037
       DOS:  cpu time      0.0421: real time      0.0421
    CHARGE:  cpu time      0.1270: real time      0.1271
    MIXING:  cpu time      0.0040: real time      0.0040
    --------------------------------------------
      LOOP:  cpu time      3.7262: real time      3.7304

 eigenvalue-minimisations  :  7704
 total energy-change (2. order) : 0.1102999E+03  (-0.5532142E+01)
 number of electron     339.9999987 magnetization       5.9007570
 augmentation part       88.1922725 magnetization       3.6246864

 Broyden mixing:
  rms(total) = 0.92169E+01    rms(broyden)= 0.92169E+01
  rms(prec ) = 0.15667E+02
  weight for this iteration     100.00

 eigenvalues of (default mixing * dielectric matrix)
  average eigenvalue GAMMA=   0.6464
  1.1711  0.3626  0.3626  0.6895

 Free energy of the ion-electron system (eV)
  ---------------------------------------------------
  alpha Z        PSCENC =      2808.04064199
  Ewald energy   TEWEN  =    -35356.50030098
  -Hartree energ DENC   =     -7925.32433385
  -exchange      EXHF   =         0.00000000
  -V(xc)+E(xc)   XCENC  =      1365.93435287
  PAW double counting   =     40140.77330859   -40532.57252711
  entropy T*S    EENTRO =         0.00000000
  eigenvalues    EBANDS =     -2402.04433513
  atomic energy  EATOM  =     41593.41992327
  Solvation  Ediel_sol  =         0.00000000
  ---------------------------------------------------
  free energy    TOTEN  =      -308.27327036 eV

  energy without entropy =     -308.27327036  energy(sigma->0) =     -308.27327036


--------------------------------------------------------------------------------------------------------




--------------------------------------- Iteration      1(  10)  ---------------------------------------


    POTLOK:  cpu time      0.0106: real time      0.0117
    SETDIJ:  cpu time      0.0477: real time      0.0478
     EDDAV:  cpu time      3.7533: real time      3.7555
 BZINTS: Fermi energy:    8.086824;  340.000000 electrons
         Band energy:-0.276293E+04;  BLOECHL correction:   -0.009395
       DOS:  cpu time      0.0415: real time      0.0415
    CHARGE:  cpu time      0.1269: real time      0.1269
    MIXING:  cpu time      0.0042: real time      0.0042
    --------------------------------------------
      LOOP:  cpu time      3.9843: real time      3.9876

 eigenvalue-minimisations  :  8304
 total energy-change (2. order) :-0.1005605E+03  (-0.1253825E+02)
 number of electron     339.9999965 magnetization       5.3545415
 augmentation part      119.5044440 magnetization       3.7314029

 Broyden mixing:
  rms(total) = 0.11608E+02    rms(broyden)= 0.11608E+02
  rms(prec ) = 0.21212E+02
  weight for this iteration     100.00

 eigenvalues of (default mixing * dielectric matrix)
  average eigenvalue GAMMA=   0.5625
  1.2679  0.7015  0.3591  0.3591  0.1247

 Free energy of the ion-electron system (eV)
  ---------------------------------------------------
  alpha Z        PSCENC =      2808.04064199
  Ewald energy   TEWEN  =    -35356.50030098
  -Hartree energ DENC   =     -7713.33655102
  -exchange      EXHF   =         0.00000000
  -V(xc)+E(xc)   XCENC  =      1356.81851885
  PAW double counting   =     40945.44801907   -41279.79341492
  entropy T*S    EENTRO =         0.00000000
  eigenvalues    EBANDS =     -2762.93059161
  atomic energy  EATOM  =     41593.41992327
  Solvation  Ediel_sol  =         0.00000000
  ---------------------------------------------------
  free energy    TOTEN  =      -408.83375534 eV

  energy without entropy =     -408.83375534  energy(sigma->0) =     -408.83375534


--------------------------------------------------------------------------------------------------------




--------------------------------------- Iteration      1(  11)  ---------------------------------------


    POTLOK:  cpu time      0.0107: real time      0.0118
    SETDIJ:  cpu time      0.0480: real time      0.0480
     EDDAV:  cpu time      3.7430: real time      3.7449
 BZINTS: Fermi energy:    8.058765;  340.000000 electrons
         Band energy:-0.272537E+04;  BLOECHL correction:   -0.012814
       DOS:  cpu time      0.0424: real time      0.0424
    CHARGE:  cpu time      0.1315: real time      0.1316
    MIXING:  cpu time      0.0044: real time      0.0044
    --------------------------------------------
      LOOP:  cpu time      3.9800: real time      3.9831

 eigenvalue-minimisations  :  8392
 total energy-change (2. order) : 0.2025174E+02  (-0.1537743E+01)
 number of electron     339.9999966 magnetization       5.3839523
 augmentation part      118.9024820 magnetization       4.2369792

 Broyden mixing:
  rms(total) = 0.11563E+02    rms(broyden)= 0.11563E+02
  rms(prec ) = 0.21124E+02
  weight for this iteration     100.00

 eigenvalues of (default mixing * dielectric matrix)
  average eigenvalue GAMMA=   0.5270
  1.2871  0.7152  0.3469  0.3469  0.2789  0.1867

 Free energy of the ion-electron system (eV)
  ---------------------------------------------------
  alpha Z        PSCENC =      2808.04064199
  Ewald energy   TEWEN  =    -35356.50030098
  -Hartree energ DENC   =     -7723.53289051
  -exchange      EXHF   =         0.00000000
  -V(xc)+E(xc)   XCENC  =      1357.23680289
  PAW double counting   =     41066.86242520   -41408.74301480
  entropy T*S    EENTRO =         0.00000000
  eigenvalues    EBANDS =     -2725.36559779
  atomic energy  EATOM  =     41593.41992327
  Solvation  Ediel_sol  =         0.00000000
  ---------------------------------------------------
  free energy    TOTEN  =      -388.58201073 eV

  energy without entropy =     -388.58201073  energy(sigma->0) =     -388.58201073


--------------------------------------------------------------------------------------------------------




--------------------------------------- Iteration      1(  12)  ---------------------------------------


    POTLOK:  cpu time      0.0115: real time      0.0123
    SETDIJ:  cpu time      0.0493: real time      0.0493
     EDDAV:  cpu time      3.5669: real time      3.5697
 BZINTS: Fermi energy:    8.062810;  340.000000 electrons
         Band energy:-0.271371E+04;  BLOECHL correction:   -0.012270
       DOS:  cpu time      0.0419: real time      0.0419
    CHARGE:  cpu time      0.1274: real time      0.1275
    MIXING:  cpu time      0.0044: real time      0.0044
    --------------------------------------------
      LOOP:  cpu time      3.8014: real time      3.8051

 eigenvalue-minimisations  :  7904
 total energy-change (2. order) : 0.5497920E+01  (-0.1011725E+00)
 number of electron     339.9999966 magnetization       4.0095848
 augmentation part      118.8301573 magnetization       2.8048122

 Broyden mixing:
  rms(total) = 0.11533E+02    rms(broyden)= 0.11533E+02
  rms(prec ) = 0.21079E+02
  weight for this iteration     100.00

 eigenvalues of (default mixing * dielectric matrix)
  average eigenvalue GAMMA=   0.5365
  1.2778  0.5009  0.7125  0.3210  0.3210  0.3110  0.3110

 Free energy of the ion-electron system (eV)
  ---------------------------------------------------
  alpha Z        PSCENC =      2808.04064199
  Ewald energy   TEWEN  =    -35356.50030098
  -Hartree energ DENC   =     -7722.84925593
  -exchange      EXHF   =         0.00000000
  -V(xc)+E(xc)   XCENC  =      1357.24793428
  PAW double counting   =     41087.70934440   -41436.43859095
  entropy T*S    EENTRO =         0.00000000
  eigenvalues    EBANDS =     -2713.71378696
  atomic energy  EATOM  =     41593.41992327
  Solvation  Ediel_sol  =         0.00000000
  ---------------------------------------------------
  free energy    TOTEN  =      -383.08409089 eV

  energy without entropy =     -383.08409089  energy(sigma->0) =     -383.08409089


--------------------------------------------------------------------------------------------------------




--------------------------------------- Iteration      1(  13)  ---------------------------------------


    POTLOK:  cpu time      0.0110: real time      0.0115
    SETDIJ:  cpu time      0.0484: real time      0.0484
     EDDAV:  cpu time      4.1590: real time      4.1617
 BZINTS: Fermi energy:    8.026926;  340.000000 electrons
         Band energy:-0.267809E+04;  BLOECHL correction:   -0.012861
       DOS:  cpu time      0.0429: real time      0.0429
    CHARGE:  cpu time      0.1272: real time      0.1272
    MIXING:  cpu time      0.0046: real time      0.0046
    --------------------------------------------
      LOOP:  cpu time      4.3930: real time      4.3964

 eigenvalue-minimisations  :  9416
 total energy-change (2. order) : 0.2022860E+02  (-0.5548481E-01)
 number of electron     339.9999966 magnetization      -3.8704884
 augmentation part      118.8604909 magnetization      -4.5080221

 Broyden mixing:
  rms(total) = 0.11323E+02    rms(broyden)= 0.11323E+02
  rms(prec ) = 0.20667E+02
  weight for this iteration     100.00

 eigenvalues of (default mixing * dielectric matrix)
  average eigenvalue GAMMA=   0.8713
  1.5975  1.5975  0.3430  0.3430  0.8621  0.8621  0.7966  0.5687

 Free energy of the ion-electron system (eV)
  ---------------------------------------------------
  alpha Z        PSCENC =      2808.04064199
  Ewald energy   TEWEN  =    -35356.50030098
  -Hartree energ DENC   =     -7754.72928497
  -exchange      EXHF   =         0.00000000
  -V(xc)+E(xc)   XCENC  =      1358.38395095
  PAW double counting   =     41264.42008802   -41597.79692542
  entropy T*S    EENTRO =         0.00000000
  eigenvalues    EBANDS =     -2678.09358603
  atomic energy  EATOM  =     41593.41992327
  Solvation  Ediel_sol  =         0.00000000
  ---------------------------------------------------
  free energy    TOTEN  =      -362.85549316 eV

  energy without entropy =     -362.85549316  energy(sigma->0) =     -362.85549316


--------------------------------------------------------------------------------------------------------




--------------------------------------- Iteration      1(  14)  ---------------------------------------


    POTLOK:  cpu time      0.0104: real time      0.0113
    SETDIJ:  cpu time      0.0475: real time      0.0475
     EDDAV:  cpu time      3.8833: real time      3.8858
 BZINTS: Fermi energy:   10.527388;  340.000000 electrons
         Band energy:-0.246019E+04;  BLOECHL correction:   -0.038779
       DOS:  cpu time      0.0419: real time      0.0419
    CHARGE:  cpu time      0.1300: real time      0.1300
    MIXING:  cpu time      0.0048: real time      0.0048
    --------------------------------------------
      LOOP:  cpu time      4.1178: real time      4.1213

 eigenvalue-minimisations  :  8680
 total energy-change (2. order) :-0.6342863E+02  (-0.1527639E+02)
 number of electron     339.9999987 magnetization      -2.1762020
 augmentation part       87.7178239 magnetization      -1.8791342

 Broyden mixing:
  rms(total) = 0.10524E+02    rms(broyden)= 0.10524E+02
  rms(prec ) = 0.18635E+02
  weight for this iteration     100.00

 eigenvalues of (default mixing * dielectric matrix)
  average eigenvalue GAMMA=   0.8085
  1.9586  1.1181  1.1181  0.3428  0.3428  0.8105  0.6658  0.5313  0.3887

 Free energy of the ion-electron system (eV)
  ---------------------------------------------------
  alpha Z        PSCENC =      2808.04064199
  Ewald energy   TEWEN  =    -35356.50030098
  -Hartree energ DENC   =     -8069.31477208
  -exchange      EXHF   =         0.00000000
  -V(xc)+E(xc)   XCENC  =      1370.93435790
  PAW double counting   =     42099.99864253   -42412.67695784
  entropy T*S    EENTRO =         0.00000000
  eigenvalues    EBANDS =     -2460.18565488
  atomic energy  EATOM  =     41593.41992327
  Solvation  Ediel_sol  =         0.00000000
  ---------------------------------------------------
  free energy    TOTEN  =      -426.28412008 eV

  energy without entropy =     -426.28412008  energy(sigma->0) =     -426.28412008


--------------------------------------------------------------------------------------------------------




--------------------------------------- Iteration      1(  15)  ---------------------------------------


    POTLOK:  cpu time      0.0109: real time      0.0122
    SETDIJ:  cpu time      0.0527: real time      0.0527
     EDDAV:  cpu time      4.0267: real time      4.0291
 BZINTS: Fermi energy:   10.621275;  340.000000 electrons
         Band energy:-0.246321E+04;  BLOECHL correction:   -0.042492
       DOS:  cpu time      0.0420: real time      0.0420
    CHARGE:  cpu time      0.1269: real time      0.1270
    MIXING:  cpu time      0.0049: real time      0.0049
    --------------------------------------------
      LOOP:  cpu time      4.2640: real time      4.2679

 eigenvalue-minimisations  :  8960
 total energy-change (2. order) : 0.7152346E+02  (-0.2447457E+01)
 number of electron     339.9999987 magnetization      -0.6413388
 augmentation part       88.4762065 magnetization      -0.3446107

 Broyden mixing:
  rms(total) = 0.96711E+01    rms(broyden)= 0.96711E+01
  rms(prec ) = 0.17654E+02
  weight for this iteration     100.00

 eigenvalues of (default mixing * dielectric matrix)
  average eigenvalue GAMMA=   0.8286
  2.2546  1.0490  1.0490  0.3421  0.3421  0.7583  0.7583  0.6107  0.6107  0.5111

 Free energy of the ion-electron system (eV)
  ---------------------------------------------------
  alpha Z        PSCENC =      2808.04064199
  Ewald energy   TEWEN  =    -35356.50030098
  -Hartree energ DENC   =     -7957.00516030
  -exchange      EXHF   =         0.00000000
  -V(xc)+E(xc)   XCENC  =      1366.55597171
  PAW double counting   =     42189.55229079   -42535.61796007
  entropy T*S    EENTRO =         0.00000000
  eigenvalues    EBANDS =     -2463.20606351
  atomic energy  EATOM  =     41593.41992327
  Solvation  Ediel_sol  =         0.00000000
  ---------------------------------------------------
  free energy    TOTEN  =      -354.76065709 eV

  energy without entropy =     -354.76065709  energy(sigma->0) =     -354.76065709


--------------------------------------------------------------------------------------------------------




--------------------------------------- Iteration      1(  16)  ---------------------------------------


    POTLOK:  cpu time      0.0105: real time      0.0114
    SETDIJ:  cpu time      0.0478: real time      0.0479
     EDDAV:  cpu time      3.9512: real time      3.9544
 BZINTS: Fermi energy:    8.630917;  340.000000 electrons
         Band energy:-0.251410E+04;  BLOECHL correction:   -0.006546
       DOS:  cpu time      0.0456: real time      0.0457
    CHARGE:  cpu time      0.1293: real time      0.1294
    MIXING:  cpu time      0.0053: real time      0.0053
    --------------------------------------------
      LOOP:  cpu time      4.1897: real time      4.1940

 eigenvalue-minimisations  :  8864
 total energy-change (2. order) : 0.6929213E+02  (-0.1595100E+01)
 number of electron     339.9999976 magnetization      -0.7270982
 augmentation part      107.8468858 magnetization      -0.5110520

 Broyden mixing:
  rms(total) = 0.37019E+01    rms(broyden)= 0.37018E+01
  rms(prec ) = 0.66360E+01
  weight for this iteration     100.00

 eigenvalues of (default mixing * dielectric matrix)
  average eigenvalue GAMMA=   0.7687
  2.1504  1.0470  1.0470  0.8388  0.8388  0.3421  0.3421  0.5768  0.5768  0.4865
  0.2094

 Free energy of the ion-electron system (eV)
  ---------------------------------------------------
  alpha Z        PSCENC =      2808.04064199
  Ewald energy   TEWEN  =    -35356.50030098
  -Hartree energ DENC   =     -7830.40999485
  -exchange      EXHF   =         0.00000000
  -V(xc)+E(xc)   XCENC  =      1361.59664601
  PAW double counting   =     42030.99269147   -42378.51167934
  entropy T*S    EENTRO =         0.00000000
  eigenvalues    EBANDS =     -2514.09645684
  atomic energy  EATOM  =     41593.41992327
  Solvation  Ediel_sol  =         0.00000000
  ---------------------------------------------------
  free energy    TOTEN  =      -285.46852926 eV

  energy without entropy =     -285.46852926  energy(sigma->0) =     -285.46852926


--------------------------------------------------------------------------------------------------------




--------------------------------------- Iteration      1(  17)  ---------------------------------------


    POTLOK:  cpu time      0.0107: real time      0.0115
    SETDIJ:  cpu time      0.0474: real time      0.0474
     EDDAV:  cpu time      4.1826: real time      4.1870
 BZINTS: Fermi energy:    9.758730;  340.000000 electrons
         Band energy:-0.247957E+04;  BLOECHL correction:   -0.003790
       DOS:  cpu time      0.0437: real time      0.0437
    CHARGE:  cpu time      0.1280: real time      0.1281
    MIXING:  cpu time      0.0051: real time      0.0051
    --------------------------------------------
      LOOP:  cpu time      4.4176: real time      4.4228

 eigenvalue-minimisations  :  9480
 total energy-change (2. order) :-0.2700784E+01  (-0.1283385E+01)
 number of electron     339.9999979 magnetization      -0.8904963
 augmentation part       96.7414501 magnetization      -0.3542180

 Broyden mixing:
  rms(total) = 0.36570E+01    rms(broyden)= 0.36569E+01
  rms(prec ) = 0.63497E+01
  weight for this iteration     100.00

 eigenvalues of (default mixing * dielectric matrix)
  average eigenvalue GAMMA=   0.7065
  2.1592  1.0409  1.0409  0.8128  0.8128  0.3421  0.3421  0.5857  0.5857  0.4797
  0.1380  0.1380

 Free energy of the ion-electron system (eV)
  ---------------------------------------------------
  alpha Z        PSCENC =      2808.04064199
  Ewald energy   TEWEN  =    -35356.50030098
  -Hartree energ DENC   =     -7865.24256841
  -exchange      EXHF   =         0.00000000
  -V(xc)+E(xc)   XCENC  =      1362.93948326
  PAW double counting   =     41947.59274301   -42298.84825036
[...]


    POTLOK:  cpu time      0.0110: real time      0.0120
    SETDIJ:  cpu time      0.0503: real time      0.0503
     EDDAV:  cpu time      3.8107: real time      3.8132
 BZINTS: Fermi energy:   11.016712;  340.000000 electrons
         Band energy:-0.227984E+04;  BLOECHL correction:   -0.019559
       DOS:  cpu time      0.0422: real time      0.0422
    CHARGE:  cpu time      0.1305: real time      0.1306
    MIXING:  cpu time      0.0108: real time      0.0108
    --------------------------------------------
      LOOP:  cpu time      4.0555: real time      4.0590

 eigenvalue-minimisations  :  8324
 total energy-change (2. order) :-0.5334268E+03  (-0.2250129E+03)
 number of electron     340.0000006 magnetization      32.8245372
 augmentation part      111.4061554 magnetization      12.7680985

 Broyden mixing:
  rms(total) = 0.20195E+02    rms(broyden)= 0.20190E+02
  rms(prec ) = 0.32138E+02
  weight for this iteration     100.00

 eigenvalues of (default mixing * dielectric matrix)
  average eigenvalue GAMMA=   0.6957
  2.3794  2.2959  2.2959  2.0910  1.2322  1.2322  1.2300  1.2300  0.7596  0.7596
  0.5603  0.5603  0.2819  0.5687  0.5687  0.5476  0.5476  0.6865  0.5825  0.5825
  0.4921  0.4921  0.5180  0.5180  0.5064  0.3180  0.2715  0.0390  0.0538  0.0606
  0.0375  0.0247  0.0247  0.0017  0.0000

 Free energy of the ion-electron system (eV)
  ---------------------------------------------------
  alpha Z        PSCENC =      3126.07707375
  Ewald energy   TEWEN  =    -36642.76822579
  -Hartree energ DENC   =     -7066.07862634
  -exchange      EXHF   =         0.00000000
  -V(xc)+E(xc)   XCENC  =      1396.92055001
  PAW double counting   =     46913.74238160   -47583.12729013
  entropy T*S    EENTRO =         0.00000000
  eigenvalues    EBANDS =     -2279.83801676
  atomic energy  EATOM  =     41593.41992327
  Solvation  Ediel_sol  =         0.00000000
  ---------------------------------------------------
  free energy    TOTEN  =      -541.65223040 eV

  energy without entropy =     -541.65223040  energy(sigma->0) =     -541.65223040


--------------------------------------------------------------------------------------------------------




--------------------------------------- Iteration      3(  37)  ---------------------------------------


    POTLOK:  cpu time      0.0105: real time      0.0116
    SETDIJ:  cpu time      0.0501: real time      0.0501
     EDDAV:  cpu time      3.1689: real time      3.1705
 BZINTS: Fermi energy:    9.759691;  340.000000 electrons
         Band energy:-0.265921E+04;  BLOECHL correction:   -0.048875
       DOS:  cpu time      0.0433: real time      0.0434
    CHARGE:  cpu time      0.1308: real time      0.1308
    MIXING:  cpu time      0.0112: real time      0.0112
    --------------------------------------------
      LOOP:  cpu time      3.4148: real time      3.4175

 eigenvalue-minimisations  :  6656
 total energy-change (2. order) :-0.9018384E+02  (-0.8076964E+02)
 number of electron     340.0000006 magnetization      25.5080720
 augmentation part      117.9844535 magnetization      16.2144731

 Broyden mixing:
  rms(total) = 0.20214E+02    rms(broyden)= 0.20214E+02
  rms(prec ) = 0.28676E+02
  weight for this iteration     100.00

 eigenvalues of (default mixing * dielectric matrix)
  average eigenvalue GAMMA=   0.6945
  2.3537  2.2252  2.2252  2.1393  1.2295  1.2295  1.1354  1.1354  0.8820  0.8820
  0.7310  0.7310  0.2819  0.7462  0.5673  0.5673  0.5518  0.5518  0.5014  0.5014
  0.5246  0.5246  0.5489  0.5489  0.5263  0.3180  0.3006  0.3006  0.0390  0.0538
  0.0606  0.0375  0.0247  0.0247  0.0017  0.0000

 Free energy of the ion-electron system (eV)
  ---------------------------------------------------
  alpha Z        PSCENC =      3126.07707375
  Ewald energy   TEWEN  =    -36642.76822579
  -Hartree energ DENC   =     -7141.19571690
  -exchange      EXHF   =         0.00000000
  -V(xc)+E(xc)   XCENC  =      1375.83674821
  PAW double counting   =     49859.01593345   -50143.00795222
  entropy T*S    EENTRO =         0.00000000
  eigenvalues    EBANDS =     -2659.21385681
  atomic energy  EATOM  =     41593.41992327
  Solvation  Ediel_sol  =         0.00000000
  ---------------------------------------------------
  free energy    TOTEN  =      -631.83607305 eV

  energy without entropy =     -631.83607305  energy(sigma->0) =     -631.83607305


--------------------------------------------------------------------------------------------------------




--------------------------------------- Iteration      3(  38)  ---------------------------------------


    POTLOK:  cpu time      0.0109: real time      0.0116
    SETDIJ:  cpu time      0.0529: real time      0.0531
     EDDAV:  cpu time      3.3584: real time      3.3604
 BZINTS: Fermi energy:    9.573927;  340.000000 electrons
         Band energy:-0.239424E+04;  BLOECHL correction:   -0.035976
       DOS:  cpu time      0.0420: real time      0.0420
    CHARGE:  cpu time      0.1302: real time      0.1302
    MIXING:  cpu time      0.0115: real time      0.0115
    --------------------------------------------
      LOOP:  cpu time      3.6059: real time      3.6088

 eigenvalue-minimisations  :  7180
 total energy-change (2. order) : 0.1506593E+03  (-0.2302017E+02)
 number of electron     340.0000006 magnetization      12.4906361
 augmentation part      117.7014562 magnetization       6.6832469

 Broyden mixing:
  rms(total) = 0.14108E+02    rms(broyden)= 0.14108E+02
  rms(prec ) = 0.23486E+02
  weight for this iteration     100.00

 eigenvalues of (default mixing * dielectric matrix)
  average eigenvalue GAMMA=   0.6973
  2.3353  2.1759  2.1759  2.0152  1.2025  1.2025  1.1459  1.1459  1.1402  1.1402
  0.7611  0.7611  0.2819  0.5668  0.5668  0.5605  0.5605  0.7320  0.5146  0.5146
  0.5596  0.5596  0.5155  0.5012  0.5012  0.3915  0.3915  0.3179  0.3205  0.0390
  0.0538  0.0606  0.0375  0.0247  0.0247  0.0017  0.0000

 Free energy of the ion-electron system (eV)
  ---------------------------------------------------
  alpha Z        PSCENC =      3126.07707375
  Ewald energy   TEWEN  =    -36642.76822579
  -Hartree energ DENC   =     -7256.38290453
  -exchange      EXHF   =         0.00000000
  -V(xc)+E(xc)   XCENC  =      1378.78367445
  PAW double counting   =     50341.78528399   -50627.84666145
  entropy T*S    EENTRO =         0.00000000
  eigenvalues    EBANDS =     -2394.24495557
  atomic energy  EATOM  =     41593.41992327
  Solvation  Ediel_sol  =         0.00000000
  ---------------------------------------------------
  free energy    TOTEN  =      -481.17679188 eV

  energy without entropy =     -481.17679188  energy(sigma->0) =     -481.17679188


--------------------------------------------------------------------------------------------------------




--------------------------------------- Iteration      3(  39)  ---------------------------------------


    POTLOK:  cpu time      0.0110: real time      0.0115
    SETDIJ:  cpu time      0.0494: real time      0.0494
     EDDAV:  cpu time      4.1296: real time      4.1320
 BZINTS: Fermi energy:   12.957851;  340.000000 electrons
         Band energy:-0.183687E+04;  BLOECHL correction:   -0.058632
       DOS:  cpu time      0.0418: real time      0.0418
    CHARGE:  cpu time      0.1310: real time      0.1310
    MIXING:  cpu time      0.0116: real time      0.0117
    --------------------------------------------
      LOOP:  cpu time      4.3744: real time      4.3774

 eigenvalue-minimisations  :  9088
 total energy-change (2. order) : 0.4550175E+02  (-0.5717332E+02)
 number of electron     340.0000011 magnetization       9.2300451
 augmentation part       84.6055880 magnetization       6.3796200

 Broyden mixing:
  rms(total) = 0.10303E+02    rms(broyden)= 0.10303E+02
  rms(prec ) = 0.17090E+02
  weight for this iteration     100.00

 eigenvalues of (default mixing * dielectric matrix)
  average eigenvalue GAMMA=   0.7126
  2.3165  2.3496  1.9146  1.9146  1.4824  1.4824  1.2498  1.2498  1.1392  1.1392
  0.8118  0.8118  0.2819  0.5635  0.5635  0.5812  0.5812  0.7059  0.5103  0.5103
  0.5522  0.5505  0.5505  0.5174  0.5174  0.4733  0.4733  0.3180  0.3633  0.3633
  0.0390  0.0538  0.0606  0.0375  0.0247  0.0247  0.0017  0.0000

 Free energy of the ion-electron system (eV)
  ---------------------------------------------------
  alpha Z        PSCENC =      3126.07707375
  Ewald energy   TEWEN  =    -36642.76822579
  -Hartree energ DENC   =     -7435.82204227
  -exchange      EXHF   =         0.00000000
  -V(xc)+E(xc)   XCENC  =      1387.22644628
  PAW double counting   =     44696.38792561   -45323.32964858
  entropy T*S    EENTRO =         0.00000000
  eigenvalues    EBANDS =     -1836.86649840
  atomic energy  EATOM  =     41593.41992327
  Solvation  Ediel_sol  =         0.00000000
  ---------------------------------------------------
  free energy    TOTEN  =      -435.67504613 eV

  energy without entropy =     -435.67504613  energy(sigma->0) =     -435.67504613


--------------------------------------------------------------------------------------------------------




--------------------------------------- Iteration      3(  40)  ---------------------------------------


    POTLOK:  cpu time      0.0110: real time      0.0118
    SETDIJ:  cpu time      0.0495: real time      0.0496
     EDDAV:  cpu time      3.8476: real time      3.8493
 BZINTS: Fermi energy:   10.002844;  340.000000 electrons
         Band energy:-0.204990E+04;  BLOECHL correction:   -0.018733
       DOS:  cpu time      0.0431: real time      0.0431
    CHARGE:  cpu time      0.1321: real time      0.1328
    MIXING:  cpu time      0.0118: real time      0.0118
    --------------------------------------------
      LOOP:  cpu time      4.0950: real time      4.0983

 eigenvalue-minimisations  :  8408
 total energy-change (2. order) : 0.7011919E+02  (-0.5735991E+01)
 number of electron     340.0000006 magnetization       4.9383122
 augmentation part      115.4158535 magnetization       1.7991884

 Broyden mixing:
  rms(total) = 0.11728E+02    rms(broyden)= 0.11728E+02
  rms(prec ) = 0.22177E+02
  weight for this iteration     100.00

 eigenvalues of (default mixing * dielectric matrix)
  average eigenvalue GAMMA=   0.7221
  2.3038  2.0978  2.0978  2.3191  1.5854  1.5854  1.2491  1.2491  1.1623  1.1623
  0.8562  0.8562  0.2819  0.5643  0.5643  0.5997  0.5997  0.5395  0.5395  0.6393
  0.5844  0.5844  0.5430  0.5430  0.5251  0.4660  0.4660  0.3847  0.3847  0.3180
  0.2696  0.0390  0.0538  0.0606  0.0375  0.0247  0.0247  0.0017  0.0000

 Free energy of the ion-electron system (eV)
  ---------------------------------------------------
  alpha Z        PSCENC =      3126.07707375
  Ewald energy   TEWEN  =    -36642.76822579
  -Hartree energ DENC   =     -7322.21544623
  -exchange      EXHF   =         0.00000000
  -V(xc)+E(xc)   XCENC  =      1381.69911021
  PAW double counting   =     45436.33943245   -45888.20452268
  entropy T*S    EENTRO =         0.00000000
  eigenvalues    EBANDS =     -2049.90320023
  atomic energy  EATOM  =     41593.41992327
  Solvation  Ediel_sol  =         0.00000000
  ---------------------------------------------------
  free energy    TOTEN  =      -365.55585525 eV

  energy without entropy =     -365.55585525  energy(sigma->0) =     -365.55585525


--------------------------------------------------------------------------------------------------------




--------------------------------------- Iteration      3(  41)  ---------------------------------------


    POTLOK:  cpu time      0.0112: real time      0.0121
    SETDIJ:  cpu time      0.0489: real time      0.0489
     EDDAV:  cpu time      3.8038: real time      3.8057
 BZINTS: Fermi energy:   12.977861;  340.000000 electrons
         Band energy:-0.183514E+04;  BLOECHL correction:   -0.074396
       DOS:  cpu time      0.0422: real time      0.0422
    CHARGE:  cpu time      0.1306: real time      0.1307
    MIXING:  cpu time      0.0122: real time      0.0122
    --------------------------------------------
      LOOP:  cpu time      4.0488: real time      4.0518

 eigenvalue-minimisations  :  8272
 total energy-change (2. order) :-0.4089493E+02  (-0.2255657E+02)
 number of electron     340.0000011 magnetization       2.0064257
 augmentation part       84.6264994 magnetization       0.0589828

 Broyden mixing:
  rms(total) = 0.10244E+02    rms(broyden)= 0.10244E+02
  rms(prec ) = 0.16962E+02
  weight for this iteration     100.00

 eigenvalues of (default mixing * dielectric matrix)
  average eigenvalue GAMMA=   0.7603
  2.2886  2.5043  2.5043  2.5134  1.7269  1.7269  1.2592  1.2592  1.2308  1.2308
  0.9069  0.9069  0.2819  0.5651  0.5651  0.5945  0.5945  0.5691  0.5691  0.6413
  0.6413  0.6599  0.5496  0.5496  0.5131  0.4464  0.4464  0.4680  0.4680  0.3180
  0.3363  0.3363  0.0390  0.0538  0.0606  0.0375  0.0247  0.0247  0.0017  0.0000

 Free energy of the ion-electron system (eV)
  ---------------------------------------------------
  alpha Z        PSCENC =      3126.07707375
  Ewald energy   TEWEN  =    -36642.76822579
  -Hartree energ DENC   =     -7491.73076928
  -exchange      EXHF   =         0.00000000
  -V(xc)+E(xc)   XCENC  =      1388.79701589
  PAW double counting   =     45745.81774461   -46290.92368802
  entropy T*S    EENTRO =         0.00000000
  eigenvalues    EBANDS =     -1835.13985599
  atomic energy  EATOM  =     41593.41992327
  Solvation  Ediel_sol  =         0.00000000
  ---------------------------------------------------
  free energy    TOTEN  =      -406.45078157 eV

  energy without entropy =     -406.45078157  energy(sigma->0) =     -406.45078157


--------------------------------------------------------------------------------------------------------




--------------------------------------- Iteration      3(  42)  ---------------------------------------


    POTLOK:  cpu time      0.0113: real time      0.0119
    SETDIJ:  cpu time      0.0495: real time      0.0495
     EDDAV:  cpu time      4.0105: real time      4.0129
 BZINTS: Fermi energy:   13.021515;  340.000000 electrons
         Band energy:-0.181940E+04;  BLOECHL correction:   -0.085024
       DOS:  cpu time      0.0436: real time      0.0436
    CHARGE:  cpu time      0.1303: real time      0.1304
    MIXING:  cpu time      0.0121: real time      0.0121
    --------------------------------------------
      LOOP:  cpu time      4.2572: real time      4.2603

 eigenvalue-minimisations  :  8880
 total energy-change (2. order) : 0.1463873E+02  (-0.2769726E+01)
 number of electron     340.0000011 magnetization       1.1578707
 augmentation part       84.7553990 magnetization       0.1423927

 Broyden mixing:
  rms(total) = 0.10411E+02    rms(broyden)= 0.10411E+02
  rms(prec ) = 0.17334E+02
  weight for this iteration     100.00

 eigenvalues of (default mixing * dielectric matrix)
  average eigenvalue GAMMA=   0.7751
  2.2845  2.5816  2.5816  2.3220  2.0397  2.0397  1.2481  1.2481  1.1969  1.1969
  0.9743  0.9743  0.2819  0.7198  0.7198  0.5652  0.5652  0.5740  0.5740  0.5649
  0.5649  0.6131  0.6131  0.5916  0.5324  0.5099  0.5099  0.4527  0.4527  0.4129
  0.4129  0.3180  0.2991  0.0390  0.0538  0.0606  0.0375  0.0247  0.0247  0.0017
  0.0000

 Free energy of the ion-electron system (eV)
  ---------------------------------------------------
  alpha Z        PSCENC =      3126.07707375
  Ewald energy   TEWEN  =    -36642.76822579
  -Hartree energ DENC   =     -7567.82157853
  -exchange      EXHF   =         0.00000000
  -V(xc)+E(xc)   XCENC  =      1391.47087650
  PAW double counting   =     48693.10956043   -49165.90453385
  entropy T*S    EENTRO =         0.00000000
  eigenvalues    EBANDS =     -1819.39514975
  atomic energy  EATOM  =     41593.41992327
  Solvation  Ediel_sol  =         0.00000000
  ---------------------------------------------------
  free energy    TOTEN  =      -391.81205398 eV

  energy without entropy =     -391.81205398  energy(sigma->0) =     -391.81205398


--------------------------------------------------------------------------------------------------------




--------------------------------------- Iteration      3(  43)  ---------------------------------------


    POTLOK:  cpu time      0.0110: real time      0.0114
    SETDIJ:  cpu time      0.0497: real time      0.0498
     EDDAV:  cpu time      4.2609: real time      4.2640
 BZINTS: Fermi energy:   13.101746;  340.000000 electrons
         Band energy:-0.177622E+04;  BLOECHL correction:   -0.079208
       DOS:  cpu time      0.0443: real time      0.0443
    CHARGE:  cpu time      0.1306: real time      0.1307
    MIXING:  cpu time      0.0124: real time      0.0124
    --------------------------------------------
      LOOP:  cpu time      4.5090: real time      4.5126

 eigenvalue-minimisations  :  9504
 total energy-change (2. order) :-0.8212644E+02  (-0.5505521E+00)
 number of electron     340.0000011 magnetization       1.4988404
 augmentation part       84.6060746 magnetization       0.8025807

 Broyden mixing:
  rms(total) = 0.10879E+02    rms(broyden)= 0.10879E+02
  rms(prec ) = 0.18075E+02
  weight for this iteration     100.00

 eigenvalues of (default mixing * dielectric matrix)
  average eigenvalue GAMMA=   0.7887
  2.6294  2.6294  2.2824  2.2228  2.2228  2.2007  1.2459  1.2459  1.2516  1.2516
  1.0272  1.0272  0.2819  0.7458  0.7458  0.5651  0.5651  0.5777  0.5777  0.6894
  0.6894  0.5600  0.5600  0.6109  0.6109  0.5204  0.5204  0.4530  0.4530  0.4563
  0.4563  0.3795  0.3180  0.3082  0.0390  0.0538  0.0606  0.0375  0.0247  0.0247
  0.0017  0.0000

 Free energy of the ion-electron system (eV)
  ---------------------------------------------------
  alpha Z        PSCENC =      3126.07707375
  Ewald energy   TEWEN  =    -36642.76822579
  -Hartree energ DENC   =     -7648.38579791
  -exchange      EXHF   =         0.00000000
  -V(xc)+E(xc)   XCENC  =      1395.34403154
  PAW double counting   =     50054.03727558   -50575.44322531
  entropy T*S    EENTRO =         0.00000000
  eigenvalues    EBANDS =     -1776.21955229
  atomic energy  EATOM  =     41593.41992327
  Solvation  Ediel_sol  =         0.00000000
  ---------------------------------------------------
  free energy    TOTEN  =      -473.93849716 eV

  energy without entropy =     -473.93849716  energy(sigma->0) =     -473.93849716


--------------------------------------------------------------------------------------------------------




--------------------------------------- Iteration      3(  44)  ---------------------------------------


    POTLOK:  cpu time      0.0111: real time      0.0117
    SETDIJ:  cpu time      0.0498: real time      0.0499
 -----------------------------------------------------------------------------
|                                                                             |
|     EEEEEEE  RRRRRR   RRRRRR   OOOOOOO  RRRRRR      ###     ###     ###     |
|     E        R     R  R     R  O     O  R     R     ###     ###     ###     |
|     E        R     R  R     R  O     O  R     R     ###     ###     ###     |
|     EEEEE    RRRRRR   RRRRRR   O     O  RRRRRR       #       #       #      |
|     E        R   R    R   R    O     O  R   R                               |
|     E        R    R   R    R   O     O  R    R      ###     ###     ###     |
|     EEEEEEE  R     R  R     R  OOOOOOO  R     R     ###     ###     ###     |
|                                                                             |
|     Error EDDDAV: Call to ZHEGV failed. Returncode = 100 1 8                |
|                                                                             |
|       ---->  I REFUSE TO CONTINUE WITH THIS SICK JOB ... BYE!!! <----       |
|                                                                             |
 -----------------------------------------------------------------------------

