 vasp.6.3.2 27Jun22 (build Jul  3 2023 11:46:21) complex                         
 executed on    LinuxNV_CrayMPICH date 2024.04.22  03:28:49
 running on    4 total cores
 distrk:  each k-point on    4 cores,    1 groups
 distr:  one band on NCORE=   1 cores,    4 groups


--------------------------------------------------------------------------------------------------------


 INCAR:
   ADDGRID = True
   ALGO = Normal
   EDIFF = 0.0002
   ENCUT = 520.0
   IBRION = -1
   ICHARG = 0
   ISIF = 3
   ISMEAR = -5
   ISPIN = 2
   ISTART = 1
   KPOINT_BSE = -1 0 0 0
   LAECHG = True
   LASPH = True
   LCHARG = True
   LELF = True
   LORBIT = 11
   LREAL = Auto
   LVHAR = True
   LWAVE = False
   MAGMOM = 2*7.0 2*0.6
   NELM = 1000
   NSW = 0
   PREC = accurate
   SIGMA = 0.05

 POTCAR:    PAW_PBE Gd 23Dec2003                  
 POTCAR:    PAW_PBE Pd 04Jan2005                  
 POTCAR:    PAW_PBE Rh_pv 25Jan2005               
 POTCAR:    PAW_PBE Gd 23Dec2003                  
   SHA256 =  58854b40b4643190560b0e2b62d2ab46bea96585f82c6231a0f4f44b8c3188dc Gd/POTCAR             
   COPYR  = (c) Copyright 23Dec2003 Georg Kresse                                                    
   COPYR  = This file is part of the software VASP. Any use, copying, and all other rights are regul
   COPYR  = If you do not have a valid VASP license, you may not use, copy or distribute this file. 
   VRHFIN =Gd : [core=Xe4]                                                                          
   LEXCH  = PE                                                                                      
   EATOM  =  3047.6032 eV,  223.9925 Ry                                                             
                                                                                                    
   TITEL  = PAW_PBE Gd 23Dec2003                                                                    
   LULTRA =        F    use ultrasoft PP ?                                                          
   IUNSCR =        1    unscreen: 0-lin 1-nonlin 2-no                                               
   RPACOR =    2.300    partial core radius                                                         
   POMASS =  157.250; ZVAL   =   18.000    mass and valenz                                          
   RCORE  =    2.800    outmost cutoff radius                                                       
   RWIGS  =    2.800; RWIGS  =    1.482    wigner-seitz radius (au A)                               
   ENMAX  =  256.472; ENMIN  =  192.354 eV                                                          
   RCLOC  =    2.316    cutoff for local pot                                                        
   LCOR   =        T    correct aug charges                                                         
   LPAW   =        T    paw PP                                                                      
   EAUG   =  537.243                                                                                
   DEXC   =    0.000                                                                                
   RMAX   =    2.857    core radius for proj-oper                                                   
   RAUG   =    1.300    factor for augmentation sphere                                              
   RDEP   =    2.921    radius for radial grids                                                     
   RDEPT  =    2.247    core radius for aug-charge                                                  
                                                                                                    
   Atomic configuration                                                                             
   14 entries                                                                                       
     n  l   j            E        occ.                                                              
     1  0  0.50    -50087.2354   2.0000                                                             
     2  0  0.50     -8269.2182   2.0000                                                             
     2  1  1.50     -7357.3672   6.0000                                                             
     3  0  0.50     -1833.2681   2.0000                                                             
     3  1  1.50     -1550.9376   6.0000                                                             
     3  2  2.50     -1178.7204  10.0000                                                             
     4  0  0.50      -369.2978   2.0000                                                             
     4  1  1.50      -276.2601   6.0000                                                             
     4  2  2.50      -147.6611  10.0000                                                             
     5  0  0.50       -49.7260   2.0000                                                             
     6  0  0.50        -4.1254   2.0000                                                             
     5  1  1.50       -27.2538   6.0000                                                             
     5  2  2.50        -2.5337   1.0000                                                             
     4  3  2.50        -8.7140   7.0000                                                             
   Description                                                                                      
     l       E           TYP  RCUT    TYP  RCUT                                                     
     0    -49.7259557     23  2.400                                                                 
     0     -4.1254107     23  2.400                                                                 
     1    -27.2537518     23  2.400                                                                 
     1     20.4087390     23  2.400                                                                 
     2     -2.5337329     23  2.500                                                                 
     2     13.6058260     23  2.500                                                                 
     3     -8.7140389     23  2.800                                                                 
     3     -9.5240782     23  2.800                                                                 
  local pseudopotential read in
  partial core-charges read in
  partial kinetic energy density read in
  atomic valenz-charges read in
  non local Contribution for L=            0  read in
    real space projection operators read in
  non local Contribution for L=            0  read in
    real space projection operators read in
  non local Contribution for L=            1  read in
    real space projection operators read in
  non local Contribution for L=            1  read in
    real space projection operators read in
  non local Contribution for L=            2  read in
    real space projection operators read in
  non local Contribution for L=            2  read in
    real space projection operators read in
  non local Contribution for L=            3  read in
    real space projection operators read in
  non local Contribution for L=            3  read in
    real space projection operators read in
    PAW grid and wavefunctions read in
 
   number of l-projection  operators is LMAX  =            8
   number of lm-projection operators is LMMAX =           32
 
 POTCAR:    PAW_PBE Pd 04Jan2005                  
   SHA256 =  dd6f6f02930356371984e2b707ff5e456046761dc76b07c1eba30abd15eb3c39 Pd/POTCAR             
   COPYR  = (c) Copyright 04Jan2005 Georg Kresse                                                    
   COPYR  = This file is part of the software VASP. Any use, copying, and all other rights are regul
   COPYR  = If you do not have a valid VASP license, you may not use, copy or distribute this file. 
   VRHFIN =Pd : s1 d9                                                                               
   LEXCH  = PE                                                                                      
   EATOM  =   809.7530 eV,   59.5152 Ry                                                             
                                                                                                    
   TITEL  = PAW_PBE Pd 04Jan2005                                                                    
   LULTRA =        F    use ultrasoft PP ?                                                          
   IUNSCR =        1    unscreen: 0-lin 1-nonlin 2-no                                               
   RPACOR =    2.000    partial core radius                                                         
   POMASS =  106.420; ZVAL   =   10.000    mass and valenz                                          
   RCORE  =    2.600    outmost cutoff radius                                                       
   RWIGS  =    2.710; RWIGS  =    1.434    wigner-seitz radius (au A)                               
   ENMAX  =  250.925; ENMIN  =  188.194 eV                                                          
   ICORE  =        3    local potential                                                             
   LCOR   =        T    correct aug charges                                                         
   LPAW   =        T    paw PP                                                                      
   EAUG   =  416.230                                                                                
   DEXC   =    0.000                                                                                
   RMAX   =    2.653    core radius for proj-oper                                                   
   RAUG   =    1.300    factor for augmentation sphere                                              
   RDEP   =    2.734    radius for radial grids                                                     
   RDEPT  =    2.103    core radius for aug-charge                                                  
                                                                                                    
   Atomic configuration                                                                             
   12 entries                                                                                       
     n  l   j            E        occ.                                                              
     1  0  0.50    -24164.6631   2.0000                                                             
     2  0  0.50     -3530.9218   2.0000                                                             
     2  1  1.50     -3165.6822   6.0000                                                             
     3  0  0.50      -639.4577   2.0000                                                             
     3  1  1.50      -519.4532   6.0000                                                             
     3  2  2.50      -328.9757  10.0000                                                             
     4  0  0.50       -88.7014   2.0000                                                             
     4  1  1.50       -54.4540   6.0000                                                             
     4  2  2.50        -6.6878   9.0000                                                             
     5  0  0.50        -4.3543   1.0000                                                             
     5  1  0.50        -1.3606   0.0000                                                             
     4  3  2.50        -1.3606   0.0000                                                             
   Description                                                                                      
     l       E           TYP  RCUT    TYP  RCUT                                                     
     2     -6.6878251     23  2.400                                                                 
     2     -8.0484077     23  2.400                                                                 
     0     -4.3542939     23  2.400                                                                 
     0      4.3406793     23  2.400                                                                 
     1     -4.0817478     23  2.600                                                                 
     1     15.8380318     23  2.600                                                                 
     3     -4.0817478     23  2.400                                                                 
  local pseudopotential read in
  partial core-charges read in
  partial kinetic energy density read in
  atomic valenz-charges read in
  non local Contribution for L=            2  read in
    real space projection operators read in
  non local Contribution for L=            2  read in
    real space projection operators read in
  non local Contribution for L=            0  read in
    real space projection operators read in
  non local Contribution for L=            0  read in
    real space projection operators read in
  non local Contribution for L=            1  read in
    real space projection operators read in
  non local Contribution for L=            1  read in
    real space projection operators read in
    PAW grid and wavefunctions read in
 
   number of l-projection  operators is LMAX  =            6
   number of lm-projection operators is LMMAX =           18
 
 POTCAR:    PAW_PBE Rh_pv 25Jan2005               
   SHA256 =  25b11608b0d10a93adcc8487bc062d7eb8aeda443ca523c31dcc1b5e75119ef1 Rh_pv/POTCAR          
   COPYR  = (c) Copyright 25Jan2005 Georg Kresse                                                    
   COPYR  = This file is part of the software VASP. Any use, copying, and all other rights are regul
   COPYR  = If you do not have a valid VASP license, you may not use, copy or distribute this file. 
   VRHFIN =Rh: 4p5s4d                                                                               
   LEXCH  = PE                                                                                      
   EATOM  =  2226.4782 eV,  163.6415 Ry                                                             
                                                                                                    
   TITEL  = PAW_PBE Rh_pv 25Jan2005                                                                 
   LULTRA =        F    use ultrasoft PP ?                                                          
   IUNSCR =        1    unscreen: 0-lin 1-nonlin 2-no                                               
   RPACOR =    2.000    partial core radius                                                         
   POMASS =  102.906; ZVAL   =   15.000    mass and valenz                                          
   RCORE  =    2.400    outmost cutoff radius                                                       
   RWIGS  =    2.650; RWIGS  =    1.402    wigner-seitz radius (au A)                               
   ENMAX  =  247.408; ENMIN  =  185.556 eV                                                          
   ICORE  =        3    local potential                                                             
   LCOR   =        T    correct aug charges                                                         
   LPAW   =        T    paw PP                                                                      
   EAUG   =  425.654                                                                                
   DEXC   =    0.000                                                                                
   RMAX   =    2.461    core radius for proj-oper                                                   
   RAUG   =    1.300    factor for augmentation sphere                                              
   RDEP   =    2.536    radius for radial grids                                                     
   RDEPT  =    1.975    core radius for aug-charge                                                  
                                                                                                    
   Atomic configuration                                                                             
   11 entries                                                                                       
     n  l   j            E        occ.                                                              
     1  0  0.50    -23034.1986   2.0000                                                             
     2  0  0.50     -3339.2387   2.0000                                                             
     2  1  1.50     -2992.3290   6.0000                                                             
     3  0  0.50      -596.7250   2.0000                                                             
     3  1  1.50      -482.7183   6.0000                                                             
     3  2  2.50      -300.5356  10.0000                                                             
     4  0  0.50       -82.4809   2.0000                                                             
     4  1  0.50       -50.4082   6.0000                                                             
     4  2  2.50        -5.9408   8.0000                                                             
     5  0  0.50        -4.2999   1.0000                                                             
     4  3  2.50        -1.3606   0.0000                                                             
   Description                                                                                      
     l       E           TYP  RCUT    TYP  RCUT                                                     
     1    -50.4082326     23  2.100                                                                 
     1      4.0817478     23  2.100                                                                 
     2     -5.9408148     23  2.400                                                                 
     2     -7.3013974     23  2.400                                                                 
     0     -4.2998579     23  2.400                                                                 
     0     13.6058260     23  2.400                                                                 
     3     -4.0817478     23  2.400                                                                 
  local pseudopotential read in
  partial core-charges read in
  partial kinetic energy density read in
  atomic valenz-charges read in
  non local Contribution for L=            1  read in
    real space projection operators read in
  non local Contribution for L=            1  read in
    real space projection operators read in
  non local Contribution for L=            2  read in
    real space projection operators read in
  non local Contribution for L=            2  read in
    real space projection operators read in
  non local Contribution for L=            0  read in
    real space projection operators read in
  non local Contribution for L=            0  read in
    real space projection operators read in
    PAW grid and wavefunctions read in
 
   number of l-projection  operators is LMAX  =            6
   number of lm-projection operators is LMMAX =           18
 
 -----------------------------------------------------------------------------
|                                                                             |
|               ----> ADVICE to this user running VASP <----                  |
|                                                                             |
|     You have a (more or less) 'small supercell' and for smaller cells       |
|     it is recommended to use the reciprocal-space projection scheme!        |
|     The real-space optimization is not efficient for small cells and it     |
|     is also less accurate ...                                               |
|     Therefore, set LREAL=.FALSE. in the INCAR file.                         |
|                                                                             |
 -----------------------------------------------------------------------------

 Optimization of the real space projectors (new method)

 maximal supplied QI-value         = 13.42
 optimisation between [QCUT,QGAM] = [ 11.67, 23.35] = [ 38.16,152.62] Ry 
 Optimized for a Real-space Cutoff    1.63 Angstroem

   l    n(q)    QCUT    max X(q) W(low)/X(q) W(high)/X(q)  e(spline) 
   0     11    11.673    10.501    0.14E-04    0.17E-05    0.21E-07
   0     11    11.673     9.148    0.21E-04    0.32E-05    0.45E-07
   1     11    11.673     4.035    0.33E-05    0.11E-04    0.84E-07
   1     11    11.673     4.388    0.11E-04    0.47E-04    0.34E-06
   2     10    11.673    20.656    0.12E-04    0.28E-04    0.54E-06
   2     10    11.673    12.651    0.11E-04    0.26E-04    0.51E-06
   3     10    11.673    61.921    0.19E-03    0.22E-03    0.23E-06
   3     10    11.673    48.328    0.20E-03    0.23E-03    0.23E-06
 Optimization of the real space projectors (new method)

 maximal supplied QI-value         = 14.36
 optimisation between [QCUT,QGAM] = [ 11.63, 23.27] = [ 37.90,151.59] Ry 
 Optimized for a Real-space Cutoff    1.49 Angstroem

   l    n(q)    QCUT    max X(q) W(low)/X(q) W(high)/X(q)  e(spline) 
   2      9    11.633    59.108    0.81E-04    0.17E-04    0.26E-06
   2      9    11.633    58.101    0.82E-04    0.18E-04    0.27E-06
   0     10    11.633   102.235    0.26E-04    0.16E-04    0.21E-06
   0     10    11.633    58.388    0.23E-04    0.15E-04    0.20E-06
   1     10    11.633    22.191    0.10E-03    0.20E-03    0.14E-06
   1     10    11.633    15.590    0.86E-04    0.17E-03    0.12E-06
 Optimization of the real space projectors (new method)

 maximal supplied QI-value         = 15.68
 optimisation between [QCUT,QGAM] = [ 11.61, 23.21] = [ 37.72,150.90] Ry 
 Optimized for a Real-space Cutoff    1.45 Angstroem

   l    n(q)    QCUT    max X(q) W(low)/X(q) W(high)/X(q)  e(spline) 
   1     10    11.607     3.143    0.27E-04    0.48E-04    0.10E-06
   1     10    11.607     5.034    0.71E-04    0.17E-03    0.32E-06
   2      9    11.607    64.180    0.22E-03    0.59E-04    0.28E-06
   2      9    11.607    61.342    0.22E-03    0.61E-04    0.29E-06
   0     10    11.607    55.593    0.52E-04    0.32E-04    0.17E-06
   0     10    11.607    26.178    0.47E-04    0.29E-04    0.15E-06
  PAW_PBE Gd 23Dec2003                  :
 energy of atom  1       EATOM=-3047.6032
 kinetic energy error for atom=    0.0019 (will be added to EATOM!!)
  PAW_PBE Pd 04Jan2005                  :
 energy of atom  2       EATOM= -809.7530
 kinetic energy error for atom=    0.0045 (will be added to EATOM!!)
  PAW_PBE Rh_pv 25Jan2005               :
 energy of atom  3       EATOM=-2226.4782
 kinetic energy error for atom=    0.0084 (will be added to EATOM!!)
 
 
 POSCAR: Gd2 Pd1 Rh1
  positions in direct lattice
  No initial velocities read in
 exchange correlation table for  LEXCH =        8
   RHO(1)=    0.500       N(1)  =     2000
   RHO(2)=  100.500       N(2)  =     4000

 VTST: version 4.2, (08/11/21)

 CHAIN: initializing optimizer
 
 OPT: Using VASP Dynamics algorithm
 CHAIN: Read ICHAIN             0
 
 POSCAR: Gd2 Pd1 Rh1
  positions in direct lattice
  No initial velocities read in
 


--------------------------------------------------------------------------------------------------------


 ion  position               nearest neighbor table
   1  0.750  0.750  0.750-   4 3.04   4 3.04   3 3.04   4 3.04   3 3.04   3 3.04   4 3.04   3 3.04
                             2 3.52   2 3.52   2 3.52   2 3.52   2 3.52   2 3.52
   2  0.250  0.250  0.250-   3 3.04   3 3.04   3 3.04   4 3.04   4 3.04   4 3.04   3 3.04   4 3.04
                             1 3.52   1 3.52   1 3.52   1 3.52   1 3.52   1 3.52
   3  0.000  0.000  0.000-   1 3.04   1 3.04   1 3.04   2 3.04   2 3.04   2 3.04   1 3.04   2 3.04

   4  0.500  0.500  0.500-   2 3.04   2 3.04   1 3.04   2 3.04   1 3.04   1 3.04   2 3.04   1 3.04

 
  LATTYP: Found a face centered cubic cell.
 ALAT       =     7.0303540000
  
  Lattice vectors:
  
 A1 = (   0.0000000000,   3.5151770000,   3.5151770000)
 A2 = (   3.5151770000,   0.0000000000,   3.5151770000)
 A3 = (   3.5151770000,   3.5151770000,   0.0000000000)


Analysis of symmetry for initial positions (statically):
=====================================================================
 Subroutine PRICEL returns:
 Original cell was already a primitive cell.
 

 Routine SETGRP: Setting up the symmetry group for a 
 face centered cubic supercell.


 Subroutine GETGRP returns: Found 48 space group operations
 (whereof 48 operations were pure point group operations)
 out of a pool of 48 trial point group operations.


The static configuration has the point symmetry O_h .


Analysis of symmetry for dynamics (positions and initial velocities):
=====================================================================
 Subroutine PRICEL returns:
 Original cell was already a primitive cell.
 

 Routine SETGRP: Setting up the symmetry group for a 
 face centered cubic supercell.


 Subroutine GETGRP returns: Found 48 space group operations
 (whereof 48 operations were pure point group operations)
 out of a pool of 48 trial point group operations.


The dynamic configuration has the point symmetry O_h .


Analysis of structural, dynamic, and magnetic symmetry:
=====================================================================
 Subroutine PRICEL returns:
 Original cell was already a primitive cell.
 

 Routine SETGRP: Setting up the symmetry group for a 
 face centered cubic supercell.


 Subroutine GETGRP returns: Found 48 space group operations
 (whereof 48 operations were pure point group operations)
 out of a pool of 48 trial point group operations.


The overall configuration has the point symmetry O_h .


 Subroutine INISYM returns: Found 48 space group operations
 (whereof 48 operations are pure point group operations),
 and found     1 'primitive' translations


----------------------------------------------------------------------------------------

                                     Primitive cell                                     

  volume of cell :      86.8704

  direct lattice vectors                    reciprocal lattice vectors
     0.000000000  3.515177000  3.515177000    -0.142240348  0.142240348  0.142240348
     3.515177000  0.000000000  3.515177000     0.142240348 -0.142240348  0.142240348
     3.515177000  3.515177000  0.000000000     0.142240348  0.142240348 -0.142240348

  length of vectors
     4.971210988  4.971210988  4.971210988     0.246367510  0.246367510  0.246367510

  position of ions in fractional coordinates (direct lattice)
     0.750000000  0.750000000  0.750000000
     0.250000000  0.250000000  0.250000000
     0.000000000  0.000000000  0.000000000
     0.500000000  0.500000000  0.500000000

  ion indices of the primitive-cell ions
   primitive index   ion index
                 1           1
                 2           2
                 3           3
                 4           4

----------------------------------------------------------------------------------------

 
 
 KPOINTS: Kpoints from vasprun.xml                

Automatic generation of k-mesh.
 Grid dimensions read from file:
 generate k-points for:    6    6    6

 Generating k-lattice:

  Cartesian coordinates                     Fractional coordinates (reciprocal lattice)
    -0.023706725  0.023706725  0.023706725     0.166666667 -0.000000000 -0.000000000
     0.023706725 -0.023706725  0.023706725    -0.000000000  0.166666667  0.000000000
     0.023706725  0.023706725 -0.023706725     0.000000000  0.000000000  0.166666667

  Length of vectors
     0.041061252  0.041061252  0.041061252

  Shift w.r.t. Gamma in fractional coordinates (k-lattice)
     0.000000000  0.000000000  0.000000000

 TETIRR: Found     35 inequivalent tetrahedra from     1296
 
 Subroutine IBZKPT returns following result:
 ===========================================
 
 Found     16 irreducible k-points:
 
 Following reciprocal coordinates:
            Coordinates               Weight
  0.000000  0.000000  0.000000      1.000000
  0.166667  0.000000  0.000000      8.000000
  0.333333  0.000000  0.000000      8.000000
  0.500000  0.000000  0.000000      4.000000
  0.166667  0.166667  0.000000      6.000000
  0.333333  0.166667  0.000000     24.000000
  0.500000  0.166667  0.000000     24.000000
 -0.333333  0.166667  0.000000     24.000000
 -0.166667  0.166667  0.000000     12.000000
  0.333333  0.333333  0.000000      6.000000
  0.500000  0.333333  0.000000     24.000000
 -0.333333  0.333333  0.000000     12.000000
  0.500000  0.500000  0.000000      3.000000
  0.500000  0.333333  0.166667     24.000000
 -0.333333  0.333333  0.166667     24.000000
 -0.333333  0.500000  0.166667     12.000000
 
 Following cartesian coordinates:
            Coordinates               Weight
  0.000000  0.000000  0.000000      1.000000
 -0.023707  0.023707  0.023707      8.000000
 -0.047413  0.047413  0.047413      8.000000
 -0.071120  0.071120  0.071120      4.000000
  0.000000  0.000000  0.047413      6.000000
 -0.023707  0.023707  0.071120     24.000000
 -0.047413  0.047413  0.094827     24.000000
  0.071120 -0.071120 -0.023707     24.000000
  0.047413 -0.047413  0.000000     12.000000
  0.000000  0.000000  0.094827      6.000000
 -0.023707  0.023707  0.118534     24.000000
  0.094827 -0.094827  0.000000     12.000000
  0.000000  0.000000  0.142240      3.000000
  0.000000  0.047413  0.094827     24.000000
  0.118534 -0.071120 -0.023707     24.000000
  0.142240 -0.094827  0.000000     12.000000
 


--------------------------------------------------------------------------------------------------------




 Dimension of arrays:
   k-points           NKPTS =     16   k-points in BZ     NKDIM =     16   number of bands    NBANDS=     44
   number of dos      NEDOS =    301   number of ions     NIONS =      4
   non local maximal  LDIM  =      8   non local SUM 2l+1 LMDIM =     32
   total plane-waves  NPLWV =  64000
   max r-space proj   IRMAX =  13346   max aug-charges    IRDMAX= 348817
   dimension x,y,z NGX =    40 NGY =   40 NGZ =   40
   dimension x,y,z NGXF=    80 NGYF=   80 NGZF=   80
   support grid    NGXF=   160 NGYF=  160 NGZF=  160
   ions per type =               2   1   1
   NGX,Y,Z   is equivalent  to a cutoff of  13.38, 13.38, 13.38 a.u.
   NGXF,Y,Z  is equivalent  to a cutoff of  26.75, 26.75, 26.75 a.u.

 SYSTEM =  unknown system                          
 POSCAR =  Gd2 Pd1 Rh1                             

 Startparameter for this run:
   NWRITE =      2    write-flag & timer
   PREC   = accura    normal or accurate (medium, high low for compatibility)
   ISTART =      0    job   : 0-new  1-cont  2-samecut
   ICHARG =      2    charge: 1-file 2-atom 10-const
   ISPIN  =      2    spin polarized calculation?
   LNONCOLLINEAR =      F non collinear calculations
   LSORBIT =      F    spin-orbit coupling
   INIWAV =      1    electr: 0-lowe 1-rand  2-diag
   LASPH  =      T    aspherical Exc in radial PAW
 Electronic Relaxation 1
   ENCUT  =  520.0 eV  38.22 Ry    6.18 a.u.   9.24  9.24  9.24*2*pi/ulx,y,z
   ENINI  =  520.0     initial cutoff
   ENAUG  =  537.2 eV  augmentation charge cutoff
   NELM   =   1000;   NELMIN=  2; NELMDL=  0     # of ELM steps 
   EDIFF  = 0.2E-03   stopping-criterion for ELM
   LREAL  =      T    real-space projection
   NLSPLINE    = F    spline interpolate recip. space projectors
   LCOMPAT=      F    compatible to vasp.4.4
   GGA_COMPAT  = T    GGA compatible to vasp.4.4-vasp.4.6
   LMAXPAW     = -100 max onsite density
   LMAXMIX     =    2 max onsite mixed and CHGCAR
   VOSKOWN=      0    Vosko Wilk Nusair interpolation
   ROPT   =   -0.00025  -0.00025  -0.00025
 Ionic relaxation
   EDIFFG = 0.2E-02   stopping-criterion for IOM
   NSW    =      0    number of steps for IOM
   NBLOCK =      1;   KBLOCK =      1    inner block; outer block 
   IBRION =     -1    ionic relax: 0-MD 1-quasi-New 2-CG
   NFREE  =      0    steps in history (QN), initial steepest desc. (CG)
   ISIF   =      3    stress and relaxation
   IWAVPR =     10    prediction:  0-non 1-charg 2-wave 3-comb
   ISYM   =      2    0-nonsym 1-usesym 2-fastsym
   LCORR  =      T    Harris-Foulkes like correction to forces

   POTIM  = 0.5000    time-step for ionic-motion
   TEIN   =    0.0    initial temperature
   TEBEG  =    0.0;   TEEND  =   0.0 temperature during run
   SMASS  =  -3.00    Nose mass-parameter (am)
   estimated Nose-frequenzy (Omega)   =  0.10E-29 period in steps = 0.13E+47 mass=  -0.565E-27a.u.
   SCALEE = 1.0000    scale energy and forces
   NPACO  =    256;   APACO  = 10.0  distance and # of slots for P.C.
   PSTRESS=    0.0 pullay stress

  Mass of Ions in am
   POMASS = 157.25106.42102.91
  Ionic Valenz
   ZVAL   =  18.00 10.00 15.00
  Atomic Wigner-Seitz radii
   RWIGS  =  -1.00 -1.00 -1.00
  virtual crystal weights 
   VCA    =   1.00  1.00  1.00
   NELECT =      61.0000    total number of electrons
   NUPDOWN=      -1.0000    fix difference up-down

 DOS related values:
   EMIN   =  10.00;   EMAX   =-10.00  energy-range for DOS
   EFERMI =   0.00
   ISMEAR =    -5;   SIGMA  =   0.05  broadening in eV -4-tet -1-fermi 0-gaus

 Electronic relaxation 2 (details)
   IALGO  =     38    algorithm
   LDIAG  =      T    sub-space diagonalisation (order eigenvalues)
   LSUBROT=      F    optimize rotation matrix (better conditioning)
   TURBO    =      0    0=normal 1=particle mesh
   IRESTART =      0    0=no restart 2=restart with 2 vectors
   NREBOOT  =      0    no. of reboots
   NMIN     =      0    reboot dimension
   EREF     =   0.00    reference energy to select bands
   IMIX   =      4    mixing-type and parameters
     AMIX     =   0.40;   BMIX     =  1.00
     AMIX_MAG =   1.60;   BMIX_MAG =  1.00
     AMIN     =   0.10
     WC   =   100.;   INIMIX=   1;  MIXPRE=   1;  MAXMIX= -45

 Intra band minimization:
   WEIMIN = 0.0000     energy-eigenvalue tresh-hold
   EBREAK =  0.11E-05  absolut break condition
   DEPER  =   0.30     relativ break condition  

   TIME   =   0.40     timestep for ELM

  volume/ion in A,a.u.               =      21.72       146.56
  Fermi-wavevector in a.u.,A,eV,Ry     =   1.455105  2.749749 28.808020  2.117330
  Thomas-Fermi vector in A             =   2.572178
 
 Write flags
   LWAVE        =      F    write WAVECAR
   LDOWNSAMPLE  =      F    k-point downsampling of WAVECAR
   LCHARG       =      T    write CHGCAR
   LVTOT        =      F    write LOCPOT, total local potential
   LVHAR        =      T    write LOCPOT, Hartree potential only
   LELF         =      T    write electronic localiz. function (ELF)
   LORBIT       =     11    0 simple, 1 ext, 2 COOP (PROOUT), +10 PAW based schemes


 Dipole corrections
   LMONO  =      F    monopole corrections only (constant potential shift)
   LDIPOL =      F    correct potential (dipole corrections)
   IDIPOL =      0    1-x, 2-y, 3-z, 4-all directions 
   EPSILON=  1.0000000 bulk dielectric constant

 Exchange correlation treatment:
   GGA     =    --    GGA type
   LEXCH   =     8    internal setting for exchange type
   LIBXC   =     F    Libxc                    
   VOSKOWN =     0    Vosko Wilk Nusair interpolation
   LHFCALC =     F    Hartree Fock is set to
   LHFONE  =     F    Hartree Fock one center treatment
   AEXX    =    0.0000 exact exchange contribution

 Linear response parameters
   LEPSILON=     F    determine dielectric tensor
   LRPA    =     F    only Hartree local field effects (RPA)
   LNABLA  =     F    use nabla operator in PAW spheres
   LVEL    =     F    velocity operator in full k-point grid
   CSHIFT  =0.1000    complex shift for real part using Kramers Kronig
   OMEGAMAX=  -1.0    maximum frequency
   DEG_THRESHOLD= 0.2000000E-02 threshold for treating states as degnerate
   RTIME   =   -0.100 relaxation time in fs
  (WPLASMAI=    0.000 imaginary part of plasma frequency in eV, 0.658/RTIME)
   DFIELD  = 0.0000000 0.0000000 0.0000000 field for delta impulse in time
 
  Optional k-point grid parameters
   LKPOINTS_OPT  =     F    use optional k-point grid
   KPOINTS_OPT_MODE=     1    mode for optional k-point grid
 
 Orbital magnetization related:
   ORBITALMAG=     F  switch on orbital magnetization
   LCHIMAG   =     F  perturbation theory with respect to B field
   DQ        =  0.001000  dq finite difference perturbation B field
   LLRAUG    =     F  two centre corrections for induced B field



--------------------------------------------------------------------------------------------------------


 Static calculation
 charge density and potential will be updated during run
 spin polarized calculation
 Variant of blocked Davidson
 Davidson routine will perform the subspace rotation
 perform sub-space diagonalisation
    after iterative eigenvector-optimisation
 modified Broyden-mixing scheme, WC =      100.0
 initial mixing is a Kerker type mixing with AMIX =  0.4000 and BMIX =      1.0000
 Hartree-type preconditioning will be used
 using additional bands            13
 real space projection scheme for non local part
 use partial core corrections
 calculate Harris-corrections to forces 
   (improved forces if not selfconsistent)
 use gradient corrections 
 use of overlap-Matrix (Vanderbilt PP)
 Fermi weights with tetrahedron method with Bloechl corrections


--------------------------------------------------------------------------------------------------------


  energy-cutoff  :      520.00
  volume of cell :       86.87
      direct lattice vectors                 reciprocal lattice vectors
     0.000000000  3.515177000  3.515177000    -0.142240348  0.142240348  0.142240348
     3.515177000  0.000000000  3.515177000     0.142240348 -0.142240348  0.142240348
     3.515177000  3.515177000  0.000000000     0.142240348  0.142240348 -0.142240348

  length of vectors
     4.971210988  4.971210988  4.971210988     0.246367510  0.246367510  0.246367510


 
 k-points in units of 2pi/SCALE and weight: Kpoints from vasprun.xml                
   0.00000000  0.00000000  0.00000000       0.005
  -0.02370672  0.02370672  0.02370672       0.037
  -0.04741345  0.04741345  0.04741345       0.037
  -0.07112017  0.07112017  0.07112017       0.019
   0.00000000  0.00000000  0.04741345       0.028
  -0.02370672  0.02370672  0.07112017       0.111
  -0.04741345  0.04741345  0.09482690       0.111
   0.07112017 -0.07112017 -0.02370672       0.111
   0.04741345 -0.04741345  0.00000000       0.056
   0.00000000  0.00000000  0.09482690       0.028
  -0.02370672  0.02370672  0.11853362       0.111
   0.09482690 -0.09482690  0.00000000       0.056
   0.00000000  0.00000000  0.14224035       0.014
   0.00000000  0.04741345  0.09482690       0.111
   0.11853362 -0.07112017 -0.02370672       0.111
   0.14224035 -0.09482690  0.00000000       0.056
 
 k-points in reciprocal lattice and weights: Kpoints from vasprun.xml                
   0.00000000  0.00000000  0.00000000       0.005
   0.16666667  0.00000000  0.00000000       0.037
   0.33333333  0.00000000  0.00000000       0.037
   0.50000000  0.00000000  0.00000000       0.019
   0.16666667  0.16666667  0.00000000       0.028
   0.33333333  0.16666667  0.00000000       0.111
   0.50000000  0.16666667  0.00000000       0.111
  -0.33333333  0.16666667  0.00000000       0.111
  -0.16666667  0.16666667  0.00000000       0.056
   0.33333333  0.33333333  0.00000000       0.028
   0.50000000  0.33333333  0.00000000       0.111
  -0.33333333  0.33333333  0.00000000       0.056
   0.50000000  0.50000000  0.00000000       0.014
   0.50000000  0.33333333  0.16666667       0.111
  -0.33333333  0.33333333  0.16666667       0.111
  -0.33333333  0.50000000  0.16666667       0.056
 
 position of ions in fractional coordinates (direct lattice) 
   0.75000000  0.75000000  0.75000000
   0.25000000  0.25000000  0.25000000
   0.00000000  0.00000000  0.00000000
   0.50000000  0.50000000  0.50000000
 
 position of ions in cartesian coordinates  (Angst):
   5.27276550  5.27276550  5.27276550
   1.75758850  1.75758850  1.75758850
   0.00000000  0.00000000  0.00000000
   3.51517700  3.51517700  3.51517700
 


--------------------------------------------------------------------------------------------------------


 k-point   1 :   0.0000 0.0000 0.0000  plane waves:    2277
 k-point   2 :   0.1667 0.0000 0.0000  plane waves:    2334
 k-point   3 :   0.3333 0.0000 0.0000  plane waves:    2334
 k-point   4 :   0.5000 0.0000 0.0000  plane waves:    2362
 k-point   5 :   0.1667 0.1667 0.0000  plane waves:    2337
 k-point   6 :   0.3333 0.1667 0.0000  plane waves:    2337
 k-point   7 :   0.5000 0.1667 0.0000  plane waves:    2342
 k-point   8 :  -0.3333 0.1667 0.0000  plane waves:    2347
 k-point   9 :  -0.1667 0.1667 0.0000  plane waves:    2325
 k-point  10 :   0.3333 0.3333 0.0000  plane waves:    2357
 k-point  11 :   0.5000 0.3333 0.0000  plane waves:    2339
 k-point  12 :  -0.3333 0.3333 0.0000  plane waves:    2315
 k-point  13 :   0.5000 0.5000 0.0000  plane waves:    2346
 k-point  14 :   0.5000 0.3333 0.1667  plane waves:    2336
 k-point  15 :  -0.3333 0.3333 0.1667  plane waves:    2328
 k-point  16 :  -0.3333 0.5000 0.1667  plane waves:    2340

 maximum and minimum number of plane-waves per node :      2362     2277

 maximum number of plane-waves:      2362
 maximum index in each direction: 
   IXMAX=    9   IYMAX=    9   IZMAX=    9
   IXMIN=   -9   IYMIN=   -9   IZMIN=   -9


 serial   3D FFT for wavefunctions
 parallel 3D FFT for charge:
    minimum data exchange during FFTs selected (reduces bandwidth)


 total amount of memory used by VASP MPI-rank0    91240. kBytes
=======================================================================

   base      :      30000. kBytes
   nonlr-proj:      11152. kBytes
   fftplans  :      19153. kBytes
   grid      :      16665. kBytes
   one-center:        393. kBytes
   wavefun   :      13877. kBytes
 
     INWAV:  cpu time      0.0003: real time      0.0004
 Broyden mixing: mesh for mixing (old mesh)
   NGX = 19   NGY = 19   NGZ = 19
  (NGX  = 80   NGY  = 80   NGZ  = 80)
  gives a total of   6859 points

 initial charge density was supplied:
 charge density of overlapping atoms calculated
 number of electron      61.0000000 magnetization      15.2000000
 keeping initial charge density in first step


--------------------------------------------------------------------------------------------------------


 Maximum index for non-local projection operator         12887
 Maximum index for augmentation-charges         84379 (set IRDMAX)


--------------------------------------------------------------------------------------------------------


 First call to EWALD:  gamma=   0.400
 Maximum number of real-space cells 3x 3x 3
 Maximum number of reciprocal cells 3x 3x 3

    FEWALD:  cpu time      0.0004: real time      0.0004


--------------------------------------- Iteration      1(   1)  ---------------------------------------


    POTLOK:  cpu time      0.1429: real time      0.1897
    SETDIJ:  cpu time      1.0234: real time      1.0239
     EDDAV:  cpu time      1.7192: real time      1.7205
 BZINTS: Fermi energy:   15.614913;   61.000000 electrons
         Band energy: 0.525009E+02;  BLOECHL correction:   -0.385249
       DOS:  cpu time      0.0150: real time      0.0150
    --------------------------------------------
      LOOP:  cpu time      2.9006: real time      2.9490

 eigenvalue-minimisations  :  4076
 total energy-change (2. order) : 0.4565020E+03  (-0.2617464E+04)
 number of electron      61.0000000 magnetization      15.2000000
 augmentation part       61.0000000 magnetization      15.2000000

 Free energy of the ion-electron system (eV)
  ---------------------------------------------------
  alpha Z        PSCENC =       581.79158465
  Ewald energy   TEWEN  =     -7104.92580926
  -Hartree energ DENC   =     -2081.45143337
  -exchange      EXHF   =         0.00000000
  -V(xc)+E(xc)   XCENC  =       219.97903406
  PAW double counting   =      7692.69817236    -8035.51131485
  entropy T*S    EENTRO =         0.00000000
  eigenvalues    EBANDS =        52.50091101
  atomic energy  EATOM  =      9131.42089263
  Solvation  Ediel_sol  =         0.00000000
  ---------------------------------------------------
  free energy    TOTEN  =       456.50203723 eV

  energy without entropy =      456.50203723  energy(sigma->0) =      456.50203723


--------------------------------------------------------------------------------------------------------




--------------------------------------- Iteration      1(   2)  ---------------------------------------


     EDDAV:  cpu time      1.4203: real time      1.4219
 BZINTS: Fermi energy:    6.268295;   61.000000 electrons
         Band energy:-0.372780E+03;  BLOECHL correction:   -0.058172
       DOS:  cpu time      0.0133: real time      0.0133
    --------------------------------------------
      LOOP:  cpu time      1.4336: real time      1.4352

 eigenvalue-minimisations  :  3296
 total energy-change (2. order) :-0.4252810E+03  (-0.3959724E+03)
 number of electron      61.0000000 magnetization      15.2000000
 augmentation part       61.0000000 magnetization      15.2000000

 Free energy of the ion-electron system (eV)
  ---------------------------------------------------
  alpha Z        PSCENC =       581.79158465
  Ewald energy   TEWEN  =     -7104.92580926
  -Hartree energ DENC   =     -2081.45143337
  -exchange      EXHF   =         0.00000000
  -V(xc)+E(xc)   XCENC  =       219.97903406
  PAW double counting   =      7692.69817236    -8035.51131485
  entropy T*S    EENTRO =         0.00000000
  eigenvalues    EBANDS =      -372.78006074
  atomic energy  EATOM  =      9131.42089263
  Solvation  Ediel_sol  =         0.00000000
  ---------------------------------------------------
  free energy    TOTEN  =        31.22106547 eV

  energy without entropy =       31.22106547  energy(sigma->0) =       31.22106547


--------------------------------------------------------------------------------------------------------




--------------------------------------- Iteration      1(   3)  ---------------------------------------


     EDDAV:  cpu time      1.4599: real time      1.4609
 BZINTS: Fermi energy:    5.284562;   61.000000 electrons
         Band energy:-0.436113E+03;  BLOECHL correction:   -0.050416
       DOS:  cpu time      0.0126: real time      0.0126
    --------------------------------------------
      LOOP:  cpu time      1.4725: real time      1.4735

 eigenvalue-minimisations  :  3312
 total energy-change (2. order) :-0.6333318E+02  (-0.5676501E+02)
 number of electron      61.0000000 magnetization      15.2000000
 augmentation part       61.0000000 magnetization      15.2000000

 Free energy of the ion-electron system (eV)
  ---------------------------------------------------
  alpha Z        PSCENC =       581.79158465
  Ewald energy   TEWEN  =     -7104.92580926
  -Hartree energ DENC   =     -2081.45143337
  -exchange      EXHF   =         0.00000000
  -V(xc)+E(xc)   XCENC  =       219.97903406
  PAW double counting   =      7692.69817236    -8035.51131485
  entropy T*S    EENTRO =         0.00000000
  eigenvalues    EBANDS =      -436.11324025
  atomic energy  EATOM  =      9131.42089263
  Solvation  Ediel_sol  =         0.00000000
  ---------------------------------------------------
  free energy    TOTEN  =       -32.11211404 eV

  energy without entropy =      -32.11211404  energy(sigma->0) =      -32.11211404


--------------------------------------------------------------------------------------------------------




--------------------------------------- Iteration      1(   4)  ---------------------------------------


     EDDAV:  cpu time      1.8475: real time      1.8489
 BZINTS: Fermi energy:    5.227013;   61.000000 electrons
         Band energy:-0.443307E+03;  BLOECHL correction:   -0.032262
       DOS:  cpu time      0.0128: real time      0.0128
    --------------------------------------------
      LOOP:  cpu time      1.8603: real time      1.8617

 eigenvalue-minimisations  :  4452
 total energy-change (2. order) :-0.7193842E+01  (-0.6893237E+01)
 number of electron      61.0000000 magnetization      15.2000000
 augmentation part       61.0000000 magnetization      15.2000000

 Free energy of the ion-electron system (eV)
  ---------------------------------------------------
  alpha Z        PSCENC =       581.79158465
  Ewald energy   TEWEN  =     -7104.92580926
  -Hartree energ DENC   =     -2081.45143337
  -exchange      EXHF   =         0.00000000
  -V(xc)+E(xc)   XCENC  =       219.97903406
  PAW double counting   =      7692.69817236    -8035.51131485
  entropy T*S    EENTRO =         0.00000000
  eigenvalues    EBANDS =      -443.30708189
  atomic energy  EATOM  =      9131.42089263
  Solvation  Ediel_sol  =         0.00000000
  ---------------------------------------------------
  free energy    TOTEN  =       -39.30595567 eV

  energy without entropy =      -39.30595567  energy(sigma->0) =      -39.30595567


--------------------------------------------------------------------------------------------------------




--------------------------------------- Iteration      1(   5)  ---------------------------------------


     EDDAV:  cpu time      1.8393: real time      1.8405
 BZINTS: Fermi energy:    5.221347;   61.000000 electrons
         Band energy:-0.443633E+03;  BLOECHL correction:   -0.032907
       DOS:  cpu time      0.0128: real time      0.0128
    CHARGE:  cpu time      0.1367: real time      0.1368
    MIXING:  cpu time      0.0013: real time      0.0013
    --------------------------------------------
      LOOP:  cpu time      1.9901: real time      1.9914

 eigenvalue-minimisations  :  4500
 total energy-change (2. order) :-0.3257265E+00  (-0.3243242E+00)
 number of electron      61.0000001 magnetization      12.3751952
 augmentation part       23.8649286 magnetization      10.3371086

 Broyden mixing:
  rms(total) = 0.20341E+01    rms(broyden)= 0.20341E+01
  rms(prec ) = 0.47226E+01
  weight for this iteration     100.00

 Free energy of the ion-electron system (eV)
  ---------------------------------------------------
  alpha Z        PSCENC =       581.79158465
  Ewald energy   TEWEN  =     -7104.92580926
  -Hartree energ DENC   =     -2081.45143337
  -exchange      EXHF   =         0.00000000
  -V(xc)+E(xc)   XCENC  =       219.97903406
  PAW double counting   =      7692.69817236    -8035.51131485
  entropy T*S    EENTRO =         0.00000000
  eigenvalues    EBANDS =      -443.63280842
  atomic energy  EATOM  =      9131.42089263
  Solvation  Ediel_sol  =         0.00000000
  ---------------------------------------------------
  free energy    TOTEN  =       -39.63168220 eV

  energy without entropy =      -39.63168220  energy(sigma->0) =      -39.63168220


--------------------------------------------------------------------------------------------------------




--------------------------------------- Iteration      1(   6)  ---------------------------------------


    POTLOK:  cpu time      0.0068: real time      0.0081
    SETDIJ:  cpu time      1.0289: real time      1.0293
     EDDAV:  cpu time      1.8454: real time      1.8463
 BZINTS: Fermi energy:    9.950880;   61.000000 electrons
         Band energy:-0.384236E+03;  BLOECHL correction:   -0.049249
       DOS:  cpu time      0.0123: real time      0.0123
    CHARGE:  cpu time      0.1342: real time      0.1342
    MIXING:  cpu time      0.0017: real time      0.0042
    --------------------------------------------
      LOOP:  cpu time      3.0294: real time      3.0344

 eigenvalue-minimisations  :  4456
 total energy-change (2. order) :-0.4296205E+02  (-0.1199220E+02)
 number of electron      61.0000001 magnetization      10.4849702
 augmentation part       14.0883891 magnetization       9.4782194

 Broyden mixing:
  rms(total) = 0.81521E+01    rms(broyden)= 0.81521E+01
  rms(prec ) = 0.17964E+02
  weight for this iteration     100.00

 eigenvalues of (default mixing * dielectric matrix)
  average eigenvalue GAMMA=   0.1894
  0.1894

 Free energy of the ion-electron system (eV)
  ---------------------------------------------------
  alpha Z        PSCENC =       581.79158465
  Ewald energy   TEWEN  =     -7104.92580926
  -Hartree energ DENC   =     -2119.67013404
  -exchange      EXHF   =         0.00000000
  -V(xc)+E(xc)   XCENC  =       223.29815443
  PAW double counting   =      7887.08068940    -8297.35294769
  entropy T*S    EENTRO =         0.00000000
  eigenvalues    EBANDS =      -384.23616134
  atomic energy  EATOM  =      9131.42089263
  Solvation  Ediel_sol  =         0.00000000
  ---------------------------------------------------
  free energy    TOTEN  =       -82.59373121 eV

  energy without entropy =      -82.59373121  energy(sigma->0) =      -82.59373121


--------------------------------------------------------------------------------------------------------




--------------------------------------- Iteration      1(   7)  ---------------------------------------


    POTLOK:  cpu time      0.0070: real time      0.0075
    SETDIJ:  cpu time      1.0287: real time      1.0292
     EDDAV:  cpu time      1.5810: real time      1.5817
 BZINTS: Fermi energy:    5.748565;   61.000000 electrons
         Band energy:-0.474812E+03;  BLOECHL correction:   -0.122015
       DOS:  cpu time      0.0118: real time      0.0118
    CHARGE:  cpu time      0.1336: real time      0.1337
    MIXING:  cpu time      0.0013: real time      0.0013
    --------------------------------------------
      LOOP:  cpu time      2.7634: real time      2.7651

 eigenvalue-minimisations  :  3732
 total energy-change (2. order) : 0.3872873E+02  (-0.9316377E+01)
 number of electron      61.0000001 magnetization      12.2564938
 augmentation part       23.9436907 magnetization      11.0048740

 Broyden mixing:
  rms(total) = 0.22304E+01    rms(broyden)= 0.22304E+01
  rms(prec ) = 0.35532E+01
  weight for this iteration     100.00

 eigenvalues of (default mixing * dielectric matrix)
  average eigenvalue GAMMA=   0.2462
  0.3556  0.1368

 Free energy of the ion-electron system (eV)
  ---------------------------------------------------
  alpha Z        PSCENC =       581.79158465
  Ewald energy   TEWEN  =     -7104.92580926
  -Hartree energ DENC   =     -2034.85836761
  -exchange      EXHF   =         0.00000000
  -V(xc)+E(xc)   XCENC  =       217.39935492
  PAW double counting   =      7806.47797408    -8166.35894789
  entropy T*S    EENTRO =         0.00000000
  eigenvalues    EBANDS =      -474.81168034
  atomic energy  EATOM  =      9131.42089263
  Solvation  Ediel_sol  =         0.00000000
  ---------------------------------------------------
  free energy    TOTEN  =       -43.86499882 eV

  energy without entropy =      -43.86499882  energy(sigma->0) =      -43.86499882


--------------------------------------------------------------------------------------------------------




--------------------------------------- Iteration      1(   8)  ---------------------------------------


    POTLOK:  cpu time      0.0067: real time      0.0078
    SETDIJ:  cpu time      1.0256: real time      1.0260
     EDDAV:  cpu time      1.7164: real time      1.7180
 BZINTS: Fermi energy:    5.931849;   61.000000 electrons
         Band energy:-0.452442E+03;  BLOECHL correction:   -0.128488
       DOS:  cpu time      0.0121: real time      0.0121
    CHARGE:  cpu time      0.1336: real time      0.1336
    MIXING:  cpu time      0.0013: real time      0.0013
    --------------------------------------------
      LOOP:  cpu time      2.8957: real time      2.8988

 eigenvalue-minimisations  :  4148
 total energy-change (2. order) :-0.2178900E+00  (-0.8232793E+00)
 number of electron      61.0000001 magnetization      14.0693722
 augmentation part       23.1939821 magnetization      12.7596712

 Broyden mixing:
  rms(total) = 0.10558E+01    rms(broyden)= 0.10558E+01
  rms(prec ) = 0.18484E+01
  weight for this iteration     100.00

 eigenvalues of (default mixing * dielectric matrix)
  average eigenvalue GAMMA=   0.5276
  0.6842  0.6842  0.2145

 Free energy of the ion-electron system (eV)
  ---------------------------------------------------
  alpha Z        PSCENC =       581.79158465
  Ewald energy   TEWEN  =     -7104.92580926
  -Hartree energ DENC   =     -2052.39030205
  -exchange      EXHF   =         0.00000000
  -V(xc)+E(xc)   XCENC  =       220.84656547
  PAW double counting   =      7845.89386981    -8214.27735468
  entropy T*S    EENTRO =         0.00000000
  eigenvalues    EBANDS =      -452.44233537
  atomic energy  EATOM  =      9131.42089263
  Solvation  Ediel_sol  =         0.00000000
  ---------------------------------------------------
  free energy    TOTEN  =       -44.08288880 eV

  energy without entropy =      -44.08288880  energy(sigma->0) =      -44.08288880


--------------------------------------------------------------------------------------------------------




--------------------------------------- Iteration      1(   9)  ---------------------------------------


    POTLOK:  cpu time      0.0069: real time      0.0079
    SETDIJ:  cpu time      1.0319: real time      1.0324
     EDDAV:  cpu time      1.7897: real time      1.7911
 BZINTS: Fermi energy:    6.058672;   61.000000 electrons
         Band energy:-0.445273E+03;  BLOECHL correction:   -0.125756
       DOS:  cpu time      0.0117: real time      0.0117
    CHARGE:  cpu time      0.1340: real time      0.1341
    MIXING:  cpu time      0.0014: real time      0.0014
    --------------------------------------------
      LOOP:  cpu time      2.9756: real time      2.9785

 eigenvalue-minimisations  :  4268
 total energy-change (2. order) :-0.1266540E+00  (-0.1538073E+00)
 number of electron      61.0000001 magnetization      14.7659288
 augmentation part       22.8464691 magnetization      13.3756424

 Broyden mixing:
  rms(total) = 0.36010E+00    rms(broyden)= 0.36010E+00
  rms(prec ) = 0.10031E+01
  weight for this iteration     100.00

 eigenvalues of (default mixing * dielectric matrix)
  average eigenvalue GAMMA=   0.6439
  0.2124  0.9091  0.9091  0.5449

 Free energy of the ion-electron system (eV)
  ---------------------------------------------------
  alpha Z        PSCENC =       581.79158465
  Ewald energy   TEWEN  =     -7104.92580926
  -Hartree energ DENC   =     -2052.71948493
  -exchange      EXHF   =         0.00000000
  -V(xc)+E(xc)   XCENC  =       223.41814350
  PAW double counting   =      7866.34179511    -8244.26400762
  entropy T*S    EENTRO =         0.00000000
  eigenvalues    EBANDS =      -445.27265691
  atomic energy  EATOM  =      9131.42089263
  Solvation  Ediel_sol  =         0.00000000
  ---------------------------------------------------
  free energy    TOTEN  =       -44.20954283 eV

  energy without entropy =      -44.20954283  energy(sigma->0) =      -44.20954283


--------------------------------------------------------------------------------------------------------




--------------------------------------- Iteration      1(  10)  ---------------------------------------


    POTLOK:  cpu time      0.0068: real time      0.0077
    SETDIJ:  cpu time      1.0304: real time      1.0308
     EDDAV:  cpu time      1.9104: real time      1.9112
 BZINTS: Fermi energy:    6.153562;   61.000000 electrons
         Band energy:-0.440397E+03;  BLOECHL correction:   -0.116248
       DOS:  cpu time      0.0118: real time      0.0118
    CHARGE:  cpu time      0.1339: real time      0.1339
    MIXING:  cpu time      0.0014: real time      0.0014
    --------------------------------------------
      LOOP:  cpu time      3.0948: real time      3.0969

 eigenvalue-minimisations  :  4680
 total energy-change (2. order) : 0.6298227E-01  (-0.7837315E-01)
 number of electron      61.0000001 magnetization      15.0630816
 augmentation part       22.5979299 magnetization      13.5512950

 Broyden mixing:
  rms(total) = 0.35918E+00    rms(broyden)= 0.35918E+00
  rms(prec ) = 0.71034E+00
  weight for this iteration     100.00

 eigenvalues of (default mixing * dielectric matrix)
  average eigenvalue GAMMA=   0.8196
  1.8772  0.2127  0.7628  0.7628  0.4827

 Free energy of the ion-electron system (eV)
  ---------------------------------------------------
  alpha Z        PSCENC =       581.79158465
  Ewald energy   TEWEN  =     -7104.92580926
  -Hartree energ DENC   =     -2051.68348400
  -exchange      EXHF   =         0.00000000
  -V(xc)+E(xc)   XCENC  =       224.48143163
  PAW double counting   =      7895.92378790    -8280.75807102
  entropy T*S    EENTRO =         0.00000000
  eigenvalues    EBANDS =      -440.39689308
  atomic energy  EATOM  =      9131.42089263
  Solvation  Ediel_sol  =         0.00000000
  ---------------------------------------------------
  free energy    TOTEN  =       -44.14656056 eV

  energy without entropy =      -44.14656056  energy(sigma->0) =      -44.14656056


--------------------------------------------------------------------------------------------------------




--------------------------------------- Iteration      1(  11)  ---------------------------------------


    POTLOK:  cpu time      0.0071: real time      0.0080
    SETDIJ:  cpu time      1.0118: real time      1.0123
     EDDAV:  cpu time      1.9144: real time      1.9156
 BZINTS: Fermi energy:    6.140641;   61.000000 electrons
         Band energy:-0.446600E+03;  BLOECHL correction:   -0.114806
       DOS:  cpu time      0.0110: real time      0.0110
    CHARGE:  cpu time      0.1336: real time      0.1337
    MIXING:  cpu time      0.0015: real time      0.0015
    --------------------------------------------
      LOOP:  cpu time      3.0795: real time      3.0822

 eigenvalue-minimisations  :  4656
 total energy-change (2. order) : 0.1072039E+00  (-0.1844228E-01)
 number of electron      61.0000001 magnetization      14.8703191
 augmentation part       22.5762795 magnetization      13.2947875

 Broyden mixing:
  rms(total) = 0.39652E+00    rms(broyden)= 0.39652E+00
  rms(prec ) = 0.56953E+00
  weight for this iteration     100.00

 eigenvalues of (default mixing * dielectric matrix)
  average eigenvalue GAMMA=   0.8146
  2.0482  0.8296  0.8296  0.2128  0.5241  0.4431

 Free energy of the ion-electron system (eV)
  ---------------------------------------------------
  alpha Z        PSCENC =       581.79158465
  Ewald energy   TEWEN  =     -7104.92580926
  -Hartree energ DENC   =     -2041.16985092
  -exchange      EXHF   =         0.00000000
  -V(xc)+E(xc)   XCENC  =       224.59063916
  PAW double counting   =      7920.63293642    -8309.77996253
  entropy T*S    EENTRO =         0.00000000
  eigenvalues    EBANDS =      -446.59978684
  atomic energy  EATOM  =      9131.42089263
  Solvation  Ediel_sol  =         0.00000000
  ---------------------------------------------------
  free energy    TOTEN  =       -44.03935668 eV

  energy without entropy =      -44.03935668  energy(sigma->0) =      -44.03935668


--------------------------------------------------------------------------------------------------------




--------------------------------------- Iteration      1(  12)  ---------------------------------------


    POTLOK:  cpu time      0.0072: real time      0.0078
    SETDIJ:  cpu time      1.0364: real time      1.0371
     EDDAV:  cpu time      1.7772: real time      1.7786
 BZINTS: Fermi energy:    6.116655;   61.000000 electrons
         Band energy:-0.451347E+03;  BLOECHL correction:   -0.113966
       DOS:  cpu time      0.0122: real time      0.0122
    CHARGE:  cpu time      0.1341: real time      0.1341
    MIXING:  cpu time      0.0015: real time      0.0015
    --------------------------------------------
      LOOP:  cpu time      2.9685: real time      2.9713

 eigenvalue-minimisations  :  4276
 total energy-change (2. order) : 0.6632405E-01  (-0.5609180E-02)
 number of electron      61.0000001 magnetization      14.7287979
 augmentation part       22.6062676 magnetization      13.1551550

 Broyden mixing:
  rms(total) = 0.27909E+00    rms(broyden)= 0.27909E+00
  rms(prec ) = 0.42207E+00
  weight for this iteration     100.00

 eigenvalues of (default mixing * dielectric matrix)
  average eigenvalue GAMMA=   0.7926
  2.0663  0.9009  0.9009  0.2127  0.5283  0.5283  0.4105

 Free energy of the ion-electron system (eV)
  ---------------------------------------------------
  alpha Z        PSCENC =       581.79158465
  Ewald energy   TEWEN  =     -7104.92580926
  -Hartree energ DENC   =     -2036.86900768
  -exchange      EXHF   =         0.00000000
  -V(xc)+E(xc)   XCENC  =       224.07888717
  PAW double counting   =      7927.72249899    -8315.84465299
  entropy T*S    EENTRO =         0.00000000
  eigenvalues    EBANDS =      -451.34742616
  atomic energy  EATOM  =      9131.42089263
  Solvation  Ediel_sol  =         0.00000000
  ---------------------------------------------------
  free energy    TOTEN  =       -43.97303263 eV

  energy without entropy =      -43.97303263  energy(sigma->0) =      -43.97303263


--------------------------------------------------------------------------------------------------------




--------------------------------------- Iteration      1(  13)  ---------------------------------------


    POTLOK:  cpu time      0.0072: real time      0.0077
    SETDIJ:  cpu time      1.0153: real time      1.0158
     EDDAV:  cpu time      1.7302: real time      1.7311
 BZINTS: Fermi energy:    6.094542;   61.000000 electrons
         Band energy:-0.455682E+03;  BLOECHL correction:   -0.113520
       DOS:  cpu time      0.0111: real time      0.0111
    CHARGE:  cpu time      0.1334: real time      0.1334
    MIXING:  cpu time      0.0015: real time      0.0015
    --------------------------------------------
      LOOP:  cpu time      2.8988: real time      2.9006

 eigenvalue-minimisations  :  4068
 total energy-change (2. order) : 0.3956891E-01  (-0.3005239E-02)
 number of electron      61.0000001 magnetization      14.6890488
 augmentation part       22.6261798 magnetization      13.1465527

 Broyden mixing:
  rms(total) = 0.21247E+00    rms(broyden)= 0.21247E+00
  rms(prec ) = 0.31973E+00
  weight for this iteration     100.00

 eigenvalues of (default mixing * dielectric matrix)
  average eigenvalue GAMMA=   0.7651
  2.0143  0.8889  0.8889  0.2127  0.5258  0.4327  0.5788  0.5788

 Free energy of the ion-electron system (eV)
  ---------------------------------------------------
  alpha Z        PSCENC =       581.79158465
  Ewald energy   TEWEN  =     -7104.92580926
  -Hartree energ DENC   =     -2033.88391041
  -exchange      EXHF   =         0.00000000
  -V(xc)+E(xc)   XCENC  =       223.76518810
  PAW double counting   =      7930.18427999    -8316.60339784
  entropy T*S    EENTRO =         0.00000000
  eigenvalues    EBANDS =      -455.68229159
  atomic energy  EATOM  =      9131.42089263
  Solvation  Ediel_sol  =         0.00000000
  ---------------------------------------------------
  free energy    TOTEN  =       -43.93346372 eV

  energy without entropy =      -43.93346372  energy(sigma->0) =      -43.93346372


--------------------------------------------------------------------------------------------------------




--------------------------------------- Iteration      1(  14)  ---------------------------------------


    POTLOK:  cpu time      0.0072: real time      0.0077
    SETDIJ:  cpu time      1.0144: real time      1.0148
     EDDAV:  cpu time      1.9108: real time      1.9117
 BZINTS: Fermi energy:    6.088821;   61.000000 electrons
         Band energy:-0.456727E+03;  BLOECHL correction:   -0.113452
       DOS:  cpu time      0.0122: real time      0.0122
    CHARGE:  cpu time      0.1344: real time      0.1345
    MIXING:  cpu time      0.0016: real time      0.0016
    --------------------------------------------
      LOOP:  cpu time      3.0806: real time      3.0824

 eigenvalue-minimisations  :  4684
 total energy-change (2. order) : 0.7994632E-02  (-0.8263794E-03)
 number of electron      61.0000001 magnetization      14.6718781
 augmentation part       22.6299969 magnetization      13.1424637

 Broyden mixing:
  rms(total) = 0.19359E+00    rms(broyden)= 0.19359E+00
  rms(prec ) = 0.29218E+00
  weight for this iteration     100.00

 eigenvalues of (default mixing * dielectric matrix)
  average eigenvalue GAMMA=   0.7912
  1.9626  0.9026  0.9026  0.8410  0.8410  0.2127  0.5205  0.5205  0.4169

 Free energy of the ion-electron system (eV)
  ---------------------------------------------------
  alpha Z        PSCENC =       581.79158465
  Ewald energy   TEWEN  =     -7104.92580926
  -Hartree energ DENC   =     -2033.37001151
  -exchange      EXHF   =         0.00000000
  -V(xc)+E(xc)   XCENC  =       223.68904027
  PAW double counting   =      7929.83178369    -8315.63632687
  entropy T*S    EENTRO =         0.00000000
  eigenvalues    EBANDS =      -456.72662270
  atomic energy  EATOM  =      9131.42089263
  Solvation  Ediel_sol  =         0.00000000
  ---------------------------------------------------
  free energy    TOTEN  =       -43.92546909 eV

  energy without entropy =      -43.92546909  energy(sigma->0) =      -43.92546909


--------------------------------------------------------------------------------------------------------




--------------------------------------- Iteration      1(  15)  ---------------------------------------


    POTLOK:  cpu time      0.0068: real time      0.0079
    SETDIJ:  cpu time      1.0138: real time      1.0142
     EDDAV:  cpu time      1.4211: real time      1.4218
 BZINTS: Fermi energy:    6.086024;   61.000000 electrons
         Band energy:-0.457237E+03;  BLOECHL correction:   -0.113430
       DOS:  cpu time      0.0120: real time      0.0120
    CHARGE:  cpu time      0.1367: real time      0.1371
    MIXING:  cpu time      0.0017: real time      0.0017
    --------------------------------------------
      LOOP:  cpu time      2.5921: real time      2.5948

 eigenvalue-minimisations  :  3132
 total energy-change (2. order) : 0.3821389E-02  (-0.7022927E-04)
 number of electron      61.0000001 magnetization      14.3687151
 augmentation part       22.6330929 magnetization      12.8449036

 Broyden mixing:
  rms(total) = 0.18743E+00    rms(broyden)= 0.18743E+00
  rms(prec ) = 0.28330E+00
  weight for this iteration     100.00

 eigenvalues of (default mixing * dielectric matrix)
  average eigenvalue GAMMA=   1.0117
  2.0632  2.0632  1.9522  0.8664  0.8664  0.2127  0.5880  0.5880  0.4246  0.4926

 Free energy of the ion-electron system (eV)
  ---------------------------------------------------
  alpha Z        PSCENC =       581.79158465
  Ewald energy   TEWEN  =     -7104.92580926
  -Hartree energ DENC   =     -2033.24039300
  -exchange      EXHF   =         0.00000000
  -V(xc)+E(xc)   XCENC  =       223.66286417
  PAW double counting   =      7929.71036825    -8315.10366028
  entropy T*S    EENTRO =         0.00000000
  eigenvalues    EBANDS =      -457.23749487
  atomic energy  EATOM  =      9131.42089263
  Solvation  Ediel_sol  =         0.00000000
  ---------------------------------------------------
  free energy    TOTEN  =       -43.92164770 eV

  energy without entropy =      -43.92164770  energy(sigma->0) =      -43.92164770


--------------------------------------------------------------------------------------------------------




--------------------------------------- Iteration      1(  16)  ---------------------------------------


    POTLOK:  cpu time      0.0074: real time      0.0082
    SETDIJ:  cpu time      1.0107: real time      1.0111
     EDDAV:  cpu time      1.5090: real time      1.5096
 BZINTS: Fermi energy:    6.011406;   61.000000 electrons
         Band energy:-0.468674E+03;  BLOECHL correction:   -0.109207
       DOS:  cpu time      0.0117: real time      0.0117
    CHARGE:  cpu time      0.1334: real time      0.1334
    MIXING:  cpu time      0.0016: real time      0.0016
    --------------------------------------------
      LOOP:  cpu time      2.6739: real time      2.6757

 eigenvalue-minimisations  :  3448
 total energy-change (2. order) : 0.4435996E-01  (-0.1583671E-01)
 number of electron      61.0000001 magnetization      14.1878433
 augmentation part       22.7180870 magnetization      12.7867667

 Broyden mixing:
  rms(total) = 0.88397E-01    rms(broyden)= 0.88397E-01
  rms(prec ) = 0.11025E+00
  weight for this iteration     100.00

 eigenvalues of (default mixing * dielectric matrix)
  average eigenvalue GAMMA=   1.1024
  2.6834  2.6834  1.8583  0.9607  0.9607  0.2127  0.5998  0.5998  0.4222  0.5730
  0.5730

 Free energy of the ion-electron system (eV)
  ---------------------------------------------------
  alpha Z        PSCENC =       581.79158465
  Ewald energy   TEWEN  =     -7104.92580926
  -Hartree energ DENC   =     -2028.16522818
  -exchange      EXHF   =         0.00000000
  -V(xc)+E(xc)   XCENC  =       223.12034771
  PAW double counting   =      7932.12576782    -8310.57123154
  entropy T*S    EENTRO =         0.00000000
  eigenvalues    EBANDS =      -468.67361158
  atomic energy  EATOM  =      9131.42089263
  Solvation  Ediel_sol  =         0.00000000
  ---------------------------------------------------
  free energy    TOTEN  =       -43.87728774 eV

  energy without entropy =      -43.87728774  energy(sigma->0) =      -43.87728774


--------------------------------------------------------------------------------------------------------




--------------------------------------- Iteration      1(  17)  ---------------------------------------


    POTLOK:  cpu time      0.0073: real time      0.0076
    SETDIJ:  cpu time      1.0145: real time      1.0152
     EDDAV:  cpu time      1.8913: real time      1.8921
 BZINTS: Fermi energy:    5.978944;   61.000000 electrons
         Band energy:-0.471545E+03;  BLOECHL correction:   -0.106588
       DOS:  cpu time      0.0121: real time      0.0121
    CHARGE:  cpu time      0.1335: real time      0.1335
    MIXING:  cpu time      0.0018: real time      0.0018
    --------------------------------------------
      LOOP:  cpu time      3.0604: real time      3.0624

 eigenvalue-minimisations  :  4588
 total energy-change (2. order) :-0.7028369E-02  (-0.3678180E-02)
 number of electron      61.0000001 magnetization      14.0970376
 augmentation part       22.7528668 magnetization      12.7619090

 Broyden mixing:
  rms(total) = 0.42358E-01    rms(broyden)= 0.42358E-01
  rms(prec ) = 0.94979E-01
  weight for this iteration     100.00

 eigenvalues of (default mixing * dielectric matrix)
  average eigenvalue GAMMA=   1.1015
  3.0321  3.0321  1.4830  0.9405  0.9405  0.2127  0.6742  0.6742  0.6380  0.6380
  0.4228  0.5302

 Free energy of the ion-electron system (eV)
  ---------------------------------------------------
  alpha Z        PSCENC =       581.79158465
  Ewald energy   TEWEN  =     -7104.92580926
  -Hartree energ DENC   =     -2026.59771605
  -exchange      EXHF   =         0.00000000
  -V(xc)+E(xc)   XCENC  =       222.82019678
  PAW double counting   =      7932.81113774    -8309.65979752
  entropy T*S    EENTRO =         0.00000000
  eigenvalues    EBANDS =      -471.54480509
  atomic energy  EATOM  =      9131.42089263
  Solvation  Ediel_sol  =         0.00000000
  ---------------------------------------------------
  free energy    TOTEN  =       -43.88431611 eV

  energy without entropy =      -43.88431611  energy(sigma->0) =      -43.88431611


--------------------------------------------------------------------------------------------------------




--------------------------------------- Iteration      1(  18)  ---------------------------------------


    POTLOK:  cpu time      0.0071: real time      0.0074
    SETDIJ:  cpu time      1.0080: real time      1.0084
     EDDAV:  cpu time      1.7745: real time      1.7753
 BZINTS: Fermi energy:    5.979357;   61.000000 electrons
         Band energy:-0.470850E+03;  BLOECHL correction:   -0.107191
       DOS:  cpu time      0.0106: real time      0.0106
    CHARGE:  cpu time      0.1339: real time      0.1339
    MIXING:  cpu time      0.0018: real time      0.0018
    --------------------------------------------
      LOOP:  cpu time      2.9358: real time      2.9374

 eigenvalue-minimisations  :  4280
 total energy-change (2. order) : 0.1482490E-02  (-0.3801241E-03)
 number of electron      61.0000001 magnetization      14.1140868
 augmentation part       22.7543112 magnetization      12.7923109

 Broyden mixing:
  rms(total) = 0.26766E-01    rms(broyden)= 0.26766E-01
  rms(prec ) = 0.60739E-01
  weight for this iteration     100.00

 eigenvalues of (default mixing * dielectric matrix)
  average eigenvalue GAMMA=   1.1092
  2.9179  2.9179  1.8179  1.0414  1.0414  0.2127  0.7420  0.7420  0.7031  0.7031
  0.4227  0.5791  0.5791

 Free energy of the ion-electron system (eV)
  ---------------------------------------------------
  alpha Z        PSCENC =       581.79158465
  Ewald energy   TEWEN  =     -7104.92580926
  -Hartree energ DENC   =     -2027.60014585
  -exchange      EXHF   =         0.00000000
  -V(xc)+E(xc)   XCENC  =       222.73273708
  PAW double counting   =      7932.43065064    -8308.88225388
  entropy T*S    EENTRO =         0.00000000
  eigenvalues    EBANDS =      -470.85048964
  atomic energy  EATOM  =      9131.42089263
  Solvation  Ediel_sol  =         0.00000000
  ---------------------------------------------------
  free energy    TOTEN  =       -43.88283362 eV

  energy without entropy =      -43.88283362  energy(sigma->0) =      -43.88283362


--------------------------------------------------------------------------------------------------------




--------------------------------------- Iteration      1(  19)  ---------------------------------------


    POTLOK:  cpu time      0.0071: real time      0.0076
    SETDIJ:  cpu time      1.0051: real time      1.0054
     EDDAV:  cpu time      1.4264: real time      1.4289
 BZINTS: Fermi energy:    5.995603;   61.000000 electrons
         Band energy:-0.469142E+03;  BLOECHL correction:   -0.108963
       DOS:  cpu time      0.0115: real time      0.0115
    CHARGE:  cpu time      0.1339: real time      0.1340
    MIXING:  cpu time      0.0019: real time      0.0019
    --------------------------------------------
      LOOP:  cpu time      2.5858: real time      2.5892

 eigenvalue-minimisations  :  3184
 total energy-change (2. order) : 0.2613884E-02  (-0.3694722E-03)
 number of electron      61.0000001 magnetization      14.1413749
 augmentation part       22.7344924 magnetization      12.7998448

 Broyden mixing:
  rms(total) = 0.14391E-01    rms(broyden)= 0.14391E-01
  rms(prec ) = 0.18266E-01
  weight for this iteration     100.00

 eigenvalues of (default mixing * dielectric matrix)
  average eigenvalue GAMMA=   1.0925
  2.7687  2.4619  2.4619  1.0888  1.0888  0.2127  0.7048  0.7048  0.8250  0.7056
  0.7056  0.4225  0.5715  0.5715

 Free energy of the ion-electron system (eV)
  ---------------------------------------------------
  alpha Z        PSCENC =       581.79158465
  Ewald energy   TEWEN  =     -7104.92580926
  -Hartree energ DENC   =     -2028.16158311
  -exchange      EXHF   =         0.00000000
  -V(xc)+E(xc)   XCENC  =       222.78126317
  PAW double counting   =      7934.65522819    -8312.30023372
  entropy T*S    EENTRO =         0.00000000
  eigenvalues    EBANDS =      -469.14156229
  atomic energy  EATOM  =      9131.42089263
  Solvation  Ediel_sol  =         0.00000000
  ---------------------------------------------------
  free energy    TOTEN  =       -43.88021974 eV

[...]
  260          m_sumb_d                              0.000011                          2   4
  261        strnlr                                0.776200                            1   3
  262          rspher_all                            0.088059                          9   4
  263          phaser                                0.237039                        144   4
  264          rpro_isp                              0.446837                        144   4
  265            fftwav_mpi                            0.097999                     3168   5
  266              fftwav                                0.094270                   3168   6
  267                fft3d                                 0.021355                 3168   7
  268            rpromu_acc                            0.148345                      864   5
  269          m_sumb_d                              0.000010                          1   4
  270        fft3d_mpi                             0.003124                           22   3
  271          fftbrc_mpi                            0.002446                         22   4
  272            fftbas_plan_mpi                       0.002430                       22   5
  273              map_forward                           0.000846                     20   6
  274                map_gather                            0.000204                   10   7
  275                m_alltoallv_z                         0.000133                   10   7
  276                map_scatter                           0.000376                   10   7
  277              map_backward                          0.000933                     24   6
  278                map_gather                            0.000228                   12   7
  279                m_alltoallv_z                         0.000132                   12   7
  280                map_scatter                           0.000408                   12   7
  281        m_sumb_d                              0.000028                            5   3
  282        forhar                                0.001296                            2   3
  283          m_sumb_d                              0.000014                          2   4
  284        strehar                               0.000865                            1   3
  285          m_sumb_d                              0.000003                          1   4
  286        chggra                                0.000731                            1   3
  287          fft3d_mpi                             0.000420                          3   4
  288            fftbrc_mpi                            0.000328                        3   5
  289              fftbas_plan_mpi                       0.000324                      3   6
  290                map_forward                           0.000157                    4   7
  291                  map_gather                            0.000042                  2   8
  292                  m_alltoallv_z                         0.000025                  2   8
  293                  map_scatter                           0.000064                  2   8
  294                map_backward                          0.000082                    2   7
  295                  map_gather                            0.000018                  1   8
  296                  m_alltoallv_z                         0.000010                  1   8
  297                  map_scatter                           0.000040                  1   8
  298          m_sumb_d                              0.000011                          2   4
  299          pothar                                0.000072                          1   4
  300            m_sumb_d                              0.000004                        1   5
  301        brmix                                 0.001870                            1   3
  302          m_sumb_d                              0.000076                          6   4
  303          brpre                                 0.000016                          2   4
  304          setg0                                 0.000453                          1   4
  305          broyd                                 0.000791                          1   4
  306            m_sumb_d                              0.000092                       22   5
  307            brsav                                 0.000059                       21   5
  308            brget                                 0.000211                       84   5
  309        m_bcast_d                             0.000017                            2   3
  310      potlok                                0.018537                              2   2
  311        fft3d_mpi                             0.012276                           36   3
  312          fftbrc_mpi                            0.010327                         36   4
  313            fftbas_plan_mpi                       0.010306                       36   5
  314              map_forward                           0.003107                     40   6
  315                map_gather                            0.001041                   24   7
  316                m_alltoallv_z                         0.000980                   24   7
  317                map_scatter                           0.000911                   24   7
  318              map_backward                          0.002456                     32   6
  319                map_gather                            0.000878                   16   7
  320                m_alltoallv_z                         0.000631                   16   7
  321                map_scatter                           0.000773                   16   7
  322              dfftw_execute                         0.003176                     30   6
  323        m_sumb_d                              0.000024                            5   3
  324        pothar                                0.000671                            2   3
  325          m_sumb_d                              0.000034                          2   4
  326        m_bcast_d                             0.001113                            4   3
  327      potlok_metagga                        0.000001                              1   2
  328      set_dd_magatom                        0.000005                              1   2
  329      set_dd_paw                            0.927018                              1   2
  330        m_sumb_d                              0.456567                            7   3
  331      augmentation_charge                   0.082802                              1   2
  332        fft3d_mpi                             0.016975                            2   3
  333          fftbrc_mpi                            0.014573                          2   4
  334            fftbas_plan_mpi                       0.014570                        2   5
  335              dfftw_execute                         0.008873                      6   6
  336              map_backward                          0.005554                      4   6
  337                map_gather                            0.001396                    2   7
  338                m_alltoallv_z                         0.002947                    2   7
  339                map_scatter                           0.001206                    2   7
  340      fftwav_mpi                            0.475882                           1056   2
  341        fftwav                                0.474571                         1056   3
  342          fft3d                                 0.453735                       1056   4
  343      densta                                0.306125                              1   2
 
 Flat profile
 ============
 
             routine name                   CPU           calls
 ---------------------------------------------------------------
 m_sumb_d                               11.833612       47343
 init_acc                               11.821331           1
 set_dd_paw                              8.431767          18
 total_time                              7.594735           1
 eddav                                   6.710309          20
 lapack                                  6.578291       14946
 raccmu_                                 5.866457       14946
 setdij_                                 2.762629          44
 redis_pw                                2.556901       75718
 acc_init_cublas                         2.459412           1
 m_alltoall_d                            1.510706      198766
 phaser                                  1.373456         848
 augmentation_charge                     1.146349          17
 fft3d                                   1.072410       84225
 dfftw_execute                           0.842524         864
 acc_init_cusolver                       0.796721           1
 redis_proj                              0.632376       95848
 eccp                                    0.624852        7040
 fftwav                                  0.582547       57087
 densta                                  0.546619          21
 rpromu_acc                              0.509374       12354
 orth1                                   0.492882       44902
 racc0mu_acc                             0.419372       14946
 m_alltoallv_z                           0.406715         843
 w1_copy                                 0.395124       81414
 overl                                   0.391620       47268
 hamiltmu                                0.336536       14946
 soft_charge                             0.314874          16
 m_bcast_z                               0.313086       16354
 rpro_isp                                0.279767         208
 setup_precond                           0.254773        7040
 m_bcast_d                               0.248448       29933
 overl_mu                                0.226979       14946
 ggemm                                   0.191842       18786
 fft3d_mpi                               0.161718       27893
 newband                                 0.146755       15586
 rspher_all                              0.130907          14
 vhamil                                  0.126610       27138
 kinhamil                                0.122654       27138
 acc_cufft_makeplan                      0.120711          19
 map_gather                              0.120557         843
 fftext_mpi                              0.114254       27138
 apply_precond                           0.111729       20098
 pw_charge                               0.110453        4219
 map_scatter                             0.110430         843
 depsum                                  0.092623          16
 set_charge                              0.084106          16
 fftwav_mpi                              0.077097       57087
 fftbas_plan_mpi                         0.055920         755
 potlok                                  0.055834          18
 proall                                  0.042266           1
 elmin                                   0.036913           1
 sphpro_fast                             0.026045           2
 lincom                                  0.020344         672
 w1_projall                              0.011379       11106
 brmix                                   0.009630          16
 choleski                                0.008651          32
 force_and_stress                        0.008551           1
 orthch                                  0.007767           1
 setg0                                   0.007484          18
 broyd                                   0.005877          16
 inisym                                  0.005289           1
 strnlr                                  0.004255           1
 map_backward                            0.003557         774
 map_forward                             0.003432         736
 truncate_high_frequency_w1              0.002671       34178
 pothar                                  0.001877          19
 brget                                   0.001774         738
 fornlr                                  0.001451           1
 stufak                                  0.001432           1
 forhar                                  0.001282           2
 strelo                                  0.001185           1
 strehar                                 0.000862           1
 forloc                                  0.000705           1
 fft_gq                                  0.000512          16
 brsav                                   0.000503         203
 fftbrc_mpi                              0.000461         755
 fewald                                  0.000325           1
 brpre                                   0.000271          32
 chggra                                  0.000228           1
 strkin                                  0.000211           1
 brgrid                                  0.000110           1
 set_dd_magatom                          0.000084          18
 vectorpot                               0.000075          17
 rsp                                     0.000048           1
 fordep                                  0.000047           1
 posmap                                  0.000041           2
 crpa_reader                             0.000027           1
 rcp                                     0.000015           1
 acc_cufft_makeplans                     0.000010           3
 potlok_metagga                          0.000002          17
 rotate_active_occupied_orbital          0.000000           1
 redis_pw_over_bands                     0.000000           1
 ---------------------------------------------------------------
  summed up times     82.48540210723877     
 
 Accumulative profile
 ====================
 
             routine name                   CPU           calls
 ---------------------------------------------------------------
 total_time                             82.485402           1
 elmin                                  52.831697           1
 eddav                                  33.909702          20
 set_dd_paw                             16.786719          18
 m_sumb_d                               11.833612       47343
 init_acc                               11.821331           1
 hamiltmu                                7.415005       14946
 lapack                                  6.578291       14946
 raccmu_                                 6.512808       14946
 force_and_stress                        4.369920           1
 setdij_                                 3.822592          44
 redis_pw                                3.246449       75718
 acc_init_cublas                         2.459412           1
 set_charge                              2.144899          16
 fft3d_mpi                               1.899254       27893
 fftbrc_mpi                              1.543596         755
 fftbas_plan_mpi                         1.543135         755
 fftwav_mpi                              1.538115       57087
 newband                                 1.531653       15586
 m_alltoall_d                            1.510706      198766
 fftwav                                  1.461018       57087
 redis_proj                              1.453534       95848
 augmentation_charge                     1.445752          17
 phaser                                  1.373456         848
 fft3d                                   1.072410       84225
 dfftw_execute                           0.842524         864
 acc_init_cusolver                       0.796721           1
 strnlr                                  0.776200           1
 eccp                                    0.624852        7040
 rpro_isp                                0.616938         208
 soft_charge                             0.591924          16
 densta                                  0.546619          21
 fordep                                  0.520800           1
 rpromu_acc                              0.509374       12354
 orth1                                   0.492882       44902
 map_forward                             0.445549         736
 kinhamil                                0.439052       27138
 racc0mu_acc                             0.419372       14946
 m_alltoallv_z                           0.406715         843
 w1_copy                                 0.395124       81414
 overl                                   0.391620       47268
 w1_projall                              0.320260       11106
 fftext_mpi                              0.316398       27138
 m_bcast_z                               0.313086       16354
 potlok                                  0.306908          18
 fornlr                                  0.258562           1
 setup_precond                           0.254773        7040
 m_bcast_d                               0.248448       29933
 overl_mu                                0.226979       14946
 orthch                                  0.224552           1
 map_backward                            0.199142         774
 ggemm                                   0.191842       18786
 rspher_all                              0.130907          14
 vhamil                                  0.126610       27138
 acc_cufft_makeplans                     0.120721           3
 acc_cufft_makeplan                      0.120711          19
 map_gather                              0.120557         843
 apply_precond                           0.111729       20098
 pw_charge                               0.110453        4219
 map_scatter                             0.110430         843
 depsum                                  0.093558          16
 proall                                  0.089714           1
 brmix                                   0.027185          16
 sphpro_fast                             0.026748           2
 lincom                                  0.020344         672
 fft_gq                                  0.016993          16
 broyd                                   0.009150          16
 choleski                                0.008651          32
 setg0                                   0.007484          18
 inisym                                  0.005330           1
 truncate_high_frequency_w1              0.002671       34178
 pothar                                  0.002017          19
 brget                                   0.001774         738
 stufak                                  0.001432           1
 forhar                                  0.001296           2
 strelo                                  0.001196           1
 strehar                                 0.000865           1
 forloc                                  0.000811           1
 chggra                                  0.000731           1
 brsav                                   0.000503         203
 fewald                                  0.000435           1
 brpre                                   0.000271          32
 strkin                                  0.000225           1
 brgrid                                  0.000110           1
 set_dd_magatom                          0.000084          18
 vectorpot                               0.000075          17
 rsp                                     0.000048           1
 posmap                                  0.000041           2
 crpa_reader                             0.000027           1
 rcp                                     0.000015           1
 potlok_metagga                          0.000002          17
 rotate_active_occupied_orbital          0.000000           1
 redis_pw_over_bands                     0.000000           1
 ---------------------------------------------------------------
 
Profiling took   0.178209  0.090154  0.003192  0.003112 seconds
Profiling took   0.113229 seconds
