 vasp.6.3.2 27Jun22 (build Jul  3 2023 11:46:21) complex                         
 executed on    LinuxNV_CrayMPICH date 2024.04.21  05:53:49
 running on    4 total cores
 distrk:  each k-point on    4 cores,    1 groups
 distr:  one band on NCORE=   1 cores,    4 groups


--------------------------------------------------------------------------------------------------------


 INCAR:
   ADDGRID = True
   ALGO = Normal
   EDIFF = 0.0002
   ENCUT = 520.0
   IBRION = -1
   ICHARG = 0
   ISIF = 3
   ISMEAR = -5
   ISPIN = 2
   ISTART = 1
   KPOINT_BSE = -1 0 0 0
   LAECHG = True
   LASPH = True
   LCHARG = True
   LELF = True
   LORBIT = 11
   LREAL = Auto
   LVHAR = True
   LWAVE = False
   MAGMOM = 2*7.0 2*0.6
   NELM = 1000
   NSW = 0
   PREC = accurate
   SIGMA = 0.05

 POTCAR:    PAW_PBE Gd 23Dec2003                  
 POTCAR:    PAW_PBE Cu_pv 06Sep2000               
 POTCAR:    PAW_PBE Os_pv 20Jan2003               
 POTCAR:    PAW_PBE Gd 23Dec2003                  
   SHA256 =  58854b40b4643190560b0e2b62d2ab46bea96585f82c6231a0f4f44b8c3188dc Gd/POTCAR             
   COPYR  = (c) Copyright 23Dec2003 Georg Kresse                                                    
   COPYR  = This file is part of the software VASP. Any use, copying, and all other rights are regul
   COPYR  = If you do not have a valid VASP license, you may not use, copy or distribute this file. 
   VRHFIN =Gd : [core=Xe4]                                                                          
   LEXCH  = PE                                                                                      
   EATOM  =  3047.6032 eV,  223.9925 Ry                                                             
                                                                                                    
   TITEL  = PAW_PBE Gd 23Dec2003                                                                    
   LULTRA =        F    use ultrasoft PP ?                                                          
   IUNSCR =        1    unscreen: 0-lin 1-nonlin 2-no                                               
   RPACOR =    2.300    partial core radius                                                         
   POMASS =  157.250; ZVAL   =   18.000    mass and valenz                                          
   RCORE  =    2.800    outmost cutoff radius                                                       
   RWIGS  =    2.800; RWIGS  =    1.482    wigner-seitz radius (au A)                               
   ENMAX  =  256.472; ENMIN  =  192.354 eV                                                          
   RCLOC  =    2.316    cutoff for local pot                                                        
   LCOR   =        T    correct aug charges                                                         
   LPAW   =        T    paw PP                                                                      
   EAUG   =  537.243                                                                                
   DEXC   =    0.000                                                                                
   RMAX   =    2.857    core radius for proj-oper                                                   
   RAUG   =    1.300    factor for augmentation sphere                                              
   RDEP   =    2.921    radius for radial grids                                                     
   RDEPT  =    2.247    core radius for aug-charge                                                  
                                                                                                    
   Atomic configuration                                                                             
   14 entries                                                                                       
     n  l   j            E        occ.                                                              
     1  0  0.50    -50087.2354   2.0000                                                             
     2  0  0.50     -8269.2182   2.0000                                                             
     2  1  1.50     -7357.3672   6.0000                                                             
     3  0  0.50     -1833.2681   2.0000                                                             
     3  1  1.50     -1550.9376   6.0000                                                             
     3  2  2.50     -1178.7204  10.0000                                                             
     4  0  0.50      -369.2978   2.0000                                                             
     4  1  1.50      -276.2601   6.0000                                                             
     4  2  2.50      -147.6611  10.0000                                                             
     5  0  0.50       -49.7260   2.0000                                                             
     6  0  0.50        -4.1254   2.0000                                                             
     5  1  1.50       -27.2538   6.0000                                                             
     5  2  2.50        -2.5337   1.0000                                                             
     4  3  2.50        -8.7140   7.0000                                                             
   Description                                                                                      
     l       E           TYP  RCUT    TYP  RCUT                                                     
     0    -49.7259557     23  2.400                                                                 
     0     -4.1254107     23  2.400                                                                 
     1    -27.2537518     23  2.400                                                                 
     1     20.4087390     23  2.400                                                                 
     2     -2.5337329     23  2.500                                                                 
     2     13.6058260     23  2.500                                                                 
     3     -8.7140389     23  2.800                                                                 
     3     -9.5240782     23  2.800                                                                 
  local pseudopotential read in
  partial core-charges read in
  partial kinetic energy density read in
  atomic valenz-charges read in
  non local Contribution for L=            0  read in
    real space projection operators read in
  non local Contribution for L=            0  read in
    real space projection operators read in
  non local Contribution for L=            1  read in
    real space projection operators read in
  non local Contribution for L=            1  read in
    real space projection operators read in
  non local Contribution for L=            2  read in
    real space projection operators read in
  non local Contribution for L=            2  read in
    real space projection operators read in
  non local Contribution for L=            3  read in
    real space projection operators read in
  non local Contribution for L=            3  read in
    real space projection operators read in
    PAW grid and wavefunctions read in
 
   number of l-projection  operators is LMAX  =            8
   number of lm-projection operators is LMMAX =           32
 
 POTCAR:    PAW_PBE Cu_pv 06Sep2000               
   SHA256 =  cb7b504e2ea725fe1f25c85a9ac77d4012ce94cd394135b722c4e25ec297f1cb Cu_pv/POTCAR          
   COPYR  = (c) Copyright 06Sep2000 Georg Kresse                                                    
   COPYR  = This file is part of the software VASP. Any use, copying, and all other rights are regul
   COPYR  = If you do not have a valid VASP license, you may not use, copy or distribute this file. 
   VRHFIN =Cu: d10 p1                                                                               
   LEXCH  = PE                                                                                      
   EATOM  =  4120.1201 eV,  302.8203 Ry                                                             
                                                                                                    
   TITEL  = PAW_PBE Cu_pv 06Sep2000                                                                 
   LULTRA =        F    use ultrasoft PP ?                                                          
   IUNSCR =        1    unscreen: 0-lin 1-nonlin 2-no                                               
   RPACOR =    1.500    partial core radius                                                         
   POMASS =   63.546; ZVAL   =   17.000    mass and valenz                                          
   RCORE  =    2.000    outmost cutoff radius                                                       
   RWIGS  =    2.000; RWIGS  =    1.058    wigner-seitz radius (au A)                               
   ENMAX  =  368.648; ENMIN  =  276.486 eV                                                          
   RCLOC  =    1.304    cutoff for local pot                                                        
   LCOR   =        T    correct aug charges                                                         
   LPAW   =        T    paw PP                                                                      
   EAUG   =  758.233                                                                                
   DEXC   =    0.000                                                                                
   RMAX   =    2.046    core radius for proj-oper                                                   
   RAUG   =    1.300    factor for augmentation sphere                                              
   RDEP   =    2.025    radius for radial grids                                                     
   RDEPT  =    1.558    core radius for aug-charge                                                  
                                                                                                    
   Atomic configuration                                                                             
    8 entries                                                                                       
     n  l   j            E        occ.                                                              
     1  0  0.50     -8850.2467   2.0000                                                             
     2  0  0.50     -1062.3498   2.0000                                                             
     2  1  1.50      -916.8226   6.0000                                                             
     3  0  0.50      -114.6929   2.0000                                                             
     3  1  1.50       -72.1325   6.0000                                                             
     3  2  2.50        -5.0394  10.0000                                                             
     4  0  0.50        -4.6097   1.0000                                                             
     4  3  2.50        -1.3606   0.0000                                                             
   Description                                                                                      
     l       E           TYP  RCUT    TYP  RCUT                                                     
     1    -72.1324777     23  1.700                                                                 
     1     -1.3605826     23  1.700                                                                 
     2     -5.0393776     23  2.000                                                                 
     2     -6.3999602     23  2.000                                                                 
     0     -4.6097062     23  1.800                                                                 
     0     14.1620818     23  1.800                                                                 
  local pseudopotential read in
  partial core-charges read in
  partial kinetic energy density read in
  atomic valenz-charges read in
  non local Contribution for L=            1  read in
    real space projection operators read in
  non local Contribution for L=            1  read in
    real space projection operators read in
  non local Contribution for L=            2  read in
    real space projection operators read in
  non local Contribution for L=            2  read in
    real space projection operators read in
  non local Contribution for L=            0  read in
    real space projection operators read in
  non local Contribution for L=            0  read in
    real space projection operators read in
    PAW grid and wavefunctions read in
 
   number of l-projection  operators is LMAX  =            6
   number of lm-projection operators is LMMAX =           18
 
 POTCAR:    PAW_PBE Os_pv 20Jan2003               
   SHA256 =  df2e3ef880fc2502babe687ce20ec2e4b82fab5eb8dd3b5c0a23d3b7861e7a8b Os_pv/POTCAR          
   COPYR  = (c) Copyright 20Jan2003 Georg Kresse                                                    
   COPYR  = This file is part of the software VASP. Any use, copying, and all other rights are regul
   COPYR  = If you do not have a valid VASP license, you may not use, copy or distribute this file. 
   VRHFIN =Os: 5p6s5d                                                                               
   LEXCH  = PE                                                                                      
   EATOM  =  1780.0332 eV,  130.8288 Ry                                                             
                                                                                                    
   TITEL  = PAW_PBE Os_pv 20Jan2003                                                                 
   LULTRA =        F    use ultrasoft PP ?                                                          
   IUNSCR =        1    unscreen: 0-lin 1-nonlin 2-no                                               
   RPACOR =    2.250    partial core radius                                                         
   POMASS =  190.200; ZVAL   =   14.000    mass and valenz                                          
   RCORE  =    2.500    outmost cutoff radius                                                       
   RWIGS  =    2.670; RWIGS  =    1.413    wigner-seitz radius (au A)                               
   ENMAX  =  228.022; ENMIN  =  171.017 eV                                                          
   RCLOC  =    2.004    cutoff for local pot                                                        
   LCOR   =        T    correct aug charges                                                         
   LPAW   =        T    paw PP                                                                      
   EAUG   =  414.932                                                                                
   DEXC   =    0.000                                                                                
   RMAX   =    2.553    core radius for proj-oper                                                   
   RAUG   =    1.300    factor for augmentation sphere                                              
   RDEP   =    2.568    radius for radial grids                                                     
   RDEPT  =    2.116    core radius for aug-charge                                                  
                                                                                                    
   Atomic configuration                                                                             
   15 entries                                                                                       
     n  l   j            E        occ.                                                              
     1  0  0.50    -73844.2435   2.0000                                                             
     2  0  0.50    -12856.6891   2.0000                                                             
     2  1  1.50    -11191.7993   6.0000                                                             
     3  0  0.50     -2990.1421   2.0000                                                             
     3  1  1.50     -2501.5220   6.0000                                                             
     3  2  2.50     -1956.5817  10.0000                                                             
     4  0  0.50      -629.1606   2.0000                                                             
     4  1  1.50      -468.9548   6.0000                                                             
     4  2  2.50      -270.2868  10.0000                                                             
     4  3  3.50       -49.5699  14.0000                                                             
     5  0  0.50       -89.1522   2.0000                                                             
     5  1  1.50       -48.6063   6.0000                                                             
     5  2  2.50        -4.7056   7.0000                                                             
     6  0  0.50        -5.4289   1.0000                                                             
     5  3  2.50        -6.8029   0.0000                                                             
   Description                                                                                      
     l       E           TYP  RCUT    TYP  RCUT                                                     
     1    -48.6062987     23  2.500                                                                 
     1     -6.8029130     23  2.500                                                                 
     2     -4.7055610     23  2.500                                                                 
     2     -6.0661436     23  2.500                                                                 
     0     -5.4288634     23  2.500                                                                 
     0      3.7338101     23  2.500                                                                 
  local pseudopotential read in
  partial core-charges read in
  partial kinetic energy density read in
  atomic valenz-charges read in
  non local Contribution for L=            1  read in
    real space projection operators read in
  non local Contribution for L=            1  read in
    real space projection operators read in
  non local Contribution for L=            2  read in
    real space projection operators read in
  non local Contribution for L=            2  read in
    real space projection operators read in
  non local Contribution for L=            0  read in
    real space projection operators read in
  non local Contribution for L=            0  read in
    real space projection operators read in
    PAW grid and wavefunctions read in
 
   number of l-projection  operators is LMAX  =            6
   number of lm-projection operators is LMMAX =           18
 
 -----------------------------------------------------------------------------
|                                                                             |
|               ----> ADVICE to this user running VASP <----                  |
|                                                                             |
|     You have a (more or less) 'small supercell' and for smaller cells       |
|     it is recommended to use the reciprocal-space projection scheme!        |
|     The real-space optimization is not efficient for small cells and it     |
|     is also less accurate ...                                               |
|     Therefore, set LREAL=.FALSE. in the INCAR file.                         |
|                                                                             |
 -----------------------------------------------------------------------------

 Optimization of the real space projectors (new method)

 maximal supplied QI-value         = 13.42
 optimisation between [QCUT,QGAM] = [ 11.67, 23.35] = [ 38.16,152.62] Ry 
 Optimized for a Real-space Cutoff    1.63 Angstroem

   l    n(q)    QCUT    max X(q) W(low)/X(q) W(high)/X(q)  e(spline) 
   0     11    11.673    10.501    0.14E-04    0.17E-05    0.21E-07
   0     11    11.673     9.148    0.21E-04    0.32E-05    0.45E-07
   1     11    11.673     4.035    0.33E-05    0.11E-04    0.84E-07
   1     11    11.673     4.388    0.11E-04    0.47E-04    0.34E-06
   2     10    11.673    20.656    0.12E-04    0.28E-04    0.54E-06
   2     10    11.673    12.651    0.11E-04    0.26E-04    0.51E-06
   3     10    11.673    61.921    0.19E-03    0.22E-03    0.23E-06
   3     10    11.673    48.328    0.20E-03    0.23E-03    0.23E-06
 Optimization of the real space projectors (new method)

 maximal supplied QI-value         = 18.90
 optimisation between [QCUT,QGAM] = [ 11.53, 23.24] = [ 37.21,151.29] Ry 
 Optimized for a Real-space Cutoff    1.36 Angstroem

   l    n(q)    QCUT    max X(q) W(low)/X(q) W(high)/X(q)  e(spline) 
   1      9    11.527     3.172    0.21E-04    0.38E-04    0.11E-06
   1      9    11.527     4.083    0.67E-04    0.79E-04    0.20E-06
   2      9    11.527    65.342    0.13E-03    0.28E-03    0.26E-06
   2      9    11.527    61.381    0.13E-03    0.29E-03    0.26E-06
   0      9    11.527    65.742    0.32E-04    0.21E-04    0.72E-07
   0      9    11.527    30.431    0.28E-04    0.19E-04    0.65E-07
 Optimization of the real space projectors (new method)

 maximal supplied QI-value         = 15.12
 optimisation between [QCUT,QGAM] = [ 11.64, 23.28] = [ 37.95,151.78] Ry 
 Optimized for a Real-space Cutoff    1.58 Angstroem

   l    n(q)    QCUT    max X(q) W(low)/X(q) W(high)/X(q)  e(spline) 
   1     11    11.641     4.891    0.34E-04    0.44E-05    0.10E-06
   1     11    11.641     5.413    0.55E-04    0.39E-05    0.21E-06
   2     10    11.641   152.724    0.79E-04    0.37E-03    0.14E-05
   2     10    11.641   145.932    0.79E-04    0.37E-03    0.14E-05
   0     11    11.641    72.123    0.49E-04    0.38E-04    0.23E-06
   0     11    11.641    43.545    0.42E-04    0.35E-04    0.22E-06
  PAW_PBE Gd 23Dec2003                  :
 energy of atom  1       EATOM=-3047.6032
 kinetic energy error for atom=    0.0019 (will be added to EATOM!!)
  PAW_PBE Cu_pv 06Sep2000               :
 energy of atom  2       EATOM=-4120.1201
 kinetic energy error for atom=    0.0541 (will be added to EATOM!!)
  PAW_PBE Os_pv 20Jan2003               :
 energy of atom  3       EATOM=-1780.0332
 kinetic energy error for atom=    0.0029 (will be added to EATOM!!)
 
 
 POSCAR: Gd2 Cu1 Os1
  positions in direct lattice
  No initial velocities read in
 exchange correlation table for  LEXCH =        8
   RHO(1)=    0.500       N(1)  =     2000
   RHO(2)=  100.500       N(2)  =     4000

 VTST: version 4.2, (08/11/21)

 CHAIN: initializing optimizer
 
 OPT: Using VASP Dynamics algorithm
 CHAIN: Read ICHAIN             0
 
 POSCAR: Gd2 Cu1 Os1
  positions in direct lattice
  No initial velocities read in
 


--------------------------------------------------------------------------------------------------------


 ion  position               nearest neighbor table
   1  0.250  0.250  0.250-   4 3.00   3 3.00   4 3.00   3 3.00   4 3.00   4 3.00   3 3.00   3 3.00
                             2 3.46   2 3.46   2 3.46   2 3.46   2 3.46   2 3.46
   2  0.750  0.750  0.750-   3 3.00   3 3.00   4 3.00   4 3.00   3 3.00   3 3.00   4 3.00   4 3.00
                             1 3.46   1 3.46   1 3.46   1 3.46   1 3.46   1 3.46
   3  0.500  0.500  0.500-   1 3.00   1 3.00   2 3.00   2 3.00   1 3.00   1 3.00   2 3.00   2 3.00

   4  0.000  0.000  0.000-   2 3.00   1 3.00   2 3.00   1 3.00   2 3.00   2 3.00   1 3.00   1 3.00

 
  LATTYP: Found a face centered cubic cell.
 ALAT       =     6.9257200000
  
  Lattice vectors:
  
 A1 = (   0.0000000000,   3.4628600000,   3.4628600000)
 A2 = (   3.4628600000,   0.0000000000,   3.4628600000)
 A3 = (   3.4628600000,   3.4628600000,   0.0000000000)


Analysis of symmetry for initial positions (statically):
=====================================================================
 Subroutine PRICEL returns:
 Original cell was already a primitive cell.
 

 Routine SETGRP: Setting up the symmetry group for a 
 face centered cubic supercell.


 Subroutine GETGRP returns: Found 48 space group operations
 (whereof 48 operations were pure point group operations)
 out of a pool of 48 trial point group operations.


The static configuration has the point symmetry O_h .


Analysis of symmetry for dynamics (positions and initial velocities):
=====================================================================
 Subroutine PRICEL returns:
 Original cell was already a primitive cell.
 

 Routine SETGRP: Setting up the symmetry group for a 
 face centered cubic supercell.


 Subroutine GETGRP returns: Found 48 space group operations
 (whereof 48 operations were pure point group operations)
 out of a pool of 48 trial point group operations.


The dynamic configuration has the point symmetry O_h .


Analysis of structural, dynamic, and magnetic symmetry:
=====================================================================
 Subroutine PRICEL returns:
 Original cell was already a primitive cell.
 

 Routine SETGRP: Setting up the symmetry group for a 
 face centered cubic supercell.


 Subroutine GETGRP returns: Found 48 space group operations
 (whereof 48 operations were pure point group operations)
 out of a pool of 48 trial point group operations.


The overall configuration has the point symmetry O_h .


 Subroutine INISYM returns: Found 48 space group operations
 (whereof 48 operations are pure point group operations),
 and found     1 'primitive' translations


----------------------------------------------------------------------------------------

                                     Primitive cell                                     

  volume of cell :      83.0491

  direct lattice vectors                    reciprocal lattice vectors
     0.000000000  3.462860000  3.462860000    -0.144389320  0.144389320  0.144389320
     3.462860000  0.000000000  3.462860000     0.144389320 -0.144389320  0.144389320
     3.462860000  3.462860000  0.000000000     0.144389320  0.144389320 -0.144389320

  length of vectors
     4.897223577  4.897223577  4.897223577     0.250089638  0.250089638  0.250089638

  position of ions in fractional coordinates (direct lattice)
     0.250000000  0.250000000  0.250000000
     0.750000000  0.750000000  0.750000000
     0.500000000  0.500000000  0.500000000
     0.000000000  0.000000000  0.000000000

  ion indices of the primitive-cell ions
   primitive index   ion index
                 1           1
                 2           2
                 3           3
                 4           4

----------------------------------------------------------------------------------------

 
 
 KPOINTS: Kpoints from vasprun.xml                

Automatic generation of k-mesh.
 Grid dimensions read from file:
 generate k-points for:    6    6    6

 Generating k-lattice:

  Cartesian coordinates                     Fractional coordinates (reciprocal lattice)
    -0.024064887  0.024064887  0.024064887     0.166666667  0.000000000  0.000000000
     0.024064887 -0.024064887  0.024064887     0.000000000  0.166666667 -0.000000000
     0.024064887  0.024064887 -0.024064887    -0.000000000 -0.000000000  0.166666667

  Length of vectors
     0.041681606  0.041681606  0.041681606

  Shift w.r.t. Gamma in fractional coordinates (k-lattice)
     0.000000000  0.000000000  0.000000000

 TETIRR: Found     35 inequivalent tetrahedra from     1296
 
 Subroutine IBZKPT returns following result:
 ===========================================
 
 Found     16 irreducible k-points:
 
 Following reciprocal coordinates:
            Coordinates               Weight
  0.000000  0.000000  0.000000      1.000000
  0.166667  0.000000  0.000000      8.000000
  0.333333  0.000000  0.000000      8.000000
  0.500000  0.000000  0.000000      4.000000
  0.166667  0.166667  0.000000      6.000000
  0.333333  0.166667  0.000000     24.000000
  0.500000  0.166667  0.000000     24.000000
 -0.333333  0.166667  0.000000     24.000000
 -0.166667  0.166667  0.000000     12.000000
  0.333333  0.333333  0.000000      6.000000
  0.500000  0.333333  0.000000     24.000000
 -0.333333  0.333333  0.000000     12.000000
  0.500000  0.500000  0.000000      3.000000
  0.500000  0.333333  0.166667     24.000000
 -0.333333  0.333333  0.166667     24.000000
 -0.333333  0.500000  0.166667     12.000000
 
 Following cartesian coordinates:
            Coordinates               Weight
  0.000000  0.000000  0.000000      1.000000
 -0.024065  0.024065  0.024065      8.000000
 -0.048130  0.048130  0.048130      8.000000
 -0.072195  0.072195  0.072195      4.000000
  0.000000  0.000000  0.048130      6.000000
 -0.024065  0.024065  0.072195     24.000000
 -0.048130  0.048130  0.096260     24.000000
  0.072195 -0.072195 -0.024065     24.000000
  0.048130 -0.048130  0.000000     12.000000
  0.000000  0.000000  0.096260      6.000000
 -0.024065  0.024065  0.120324     24.000000
  0.096260 -0.096260  0.000000     12.000000
  0.000000  0.000000  0.144389      3.000000
  0.000000  0.048130  0.096260     24.000000
  0.120324 -0.072195 -0.024065     24.000000
  0.144389 -0.096260  0.000000     12.000000
 


--------------------------------------------------------------------------------------------------------




 Dimension of arrays:
   k-points           NKPTS =     16   k-points in BZ     NKDIM =     16   number of bands    NBANDS=     48
   number of dos      NEDOS =    301   number of ions     NIONS =      4
   non local maximal  LDIM  =      8   non local SUM 2l+1 LMDIM =     32
   total plane-waves  NPLWV =  46656
   max r-space proj   IRMAX =  10189   max aug-charges    IRDMAX= 266035
   dimension x,y,z NGX =    36 NGY =   36 NGZ =   36
   dimension x,y,z NGXF=    72 NGYF=   72 NGZF=   72
   support grid    NGXF=   144 NGYF=  144 NGZF=  144
   ions per type =               2   1   1
   NGX,Y,Z   is equivalent  to a cutoff of  12.22, 12.22, 12.22 a.u.
   NGXF,Y,Z  is equivalent  to a cutoff of  24.44, 24.44, 24.44 a.u.

 SYSTEM =  unknown system                          
 POSCAR =  Gd2 Cu1 Os1                             

 Startparameter for this run:
   NWRITE =      2    write-flag & timer
   PREC   = accura    normal or accurate (medium, high low for compatibility)
   ISTART =      0    job   : 0-new  1-cont  2-samecut
   ICHARG =      2    charge: 1-file 2-atom 10-const
   ISPIN  =      2    spin polarized calculation?
   LNONCOLLINEAR =      F non collinear calculations
   LSORBIT =      F    spin-orbit coupling
   INIWAV =      1    electr: 0-lowe 1-rand  2-diag
   LASPH  =      T    aspherical Exc in radial PAW
 Electronic Relaxation 1
   ENCUT  =  520.0 eV  38.22 Ry    6.18 a.u.   9.11  9.11  9.11*2*pi/ulx,y,z
   ENINI  =  520.0     initial cutoff
   ENAUG  =  758.2 eV  augmentation charge cutoff
   NELM   =   1000;   NELMIN=  2; NELMDL=  0     # of ELM steps 
   EDIFF  = 0.2E-03   stopping-criterion for ELM
   LREAL  =      T    real-space projection
   NLSPLINE    = F    spline interpolate recip. space projectors
   LCOMPAT=      F    compatible to vasp.4.4
   GGA_COMPAT  = T    GGA compatible to vasp.4.4-vasp.4.6
   LMAXPAW     = -100 max onsite density
   LMAXMIX     =    2 max onsite mixed and CHGCAR
   VOSKOWN=      0    Vosko Wilk Nusair interpolation
   ROPT   =   -0.00025  -0.00025  -0.00025
 Ionic relaxation
   EDIFFG = 0.2E-02   stopping-criterion for IOM
   NSW    =      0    number of steps for IOM
   NBLOCK =      1;   KBLOCK =      1    inner block; outer block 
   IBRION =     -1    ionic relax: 0-MD 1-quasi-New 2-CG
   NFREE  =      0    steps in history (QN), initial steepest desc. (CG)
   ISIF   =      3    stress and relaxation
   IWAVPR =     10    prediction:  0-non 1-charg 2-wave 3-comb
   ISYM   =      2    0-nonsym 1-usesym 2-fastsym
   LCORR  =      T    Harris-Foulkes like correction to forces

   POTIM  = 0.5000    time-step for ionic-motion
   TEIN   =    0.0    initial temperature
   TEBEG  =    0.0;   TEEND  =   0.0 temperature during run
   SMASS  =  -3.00    Nose mass-parameter (am)
   estimated Nose-frequenzy (Omega)   =  0.10E-29 period in steps = 0.13E+47 mass=  -0.548E-27a.u.
   SCALEE = 1.0000    scale energy and forces
   NPACO  =    256;   APACO  = 10.0  distance and # of slots for P.C.
   PSTRESS=    0.0 pullay stress

  Mass of Ions in am
   POMASS = 157.25 63.55190.20
  Ionic Valenz
   ZVAL   =  18.00 17.00 14.00
  Atomic Wigner-Seitz radii
   RWIGS  =  -1.00 -1.00 -1.00
  virtual crystal weights 
   VCA    =   1.00  1.00  1.00
   NELECT =      67.0000    total number of electrons
   NUPDOWN=      -1.0000    fix difference up-down

 DOS related values:
   EMIN   =  10.00;   EMAX   =-10.00  energy-range for DOS
   EFERMI =   0.00
   ISMEAR =    -5;   SIGMA  =   0.05  broadening in eV -4-tet -1-fermi 0-gaus

 Electronic relaxation 2 (details)
   IALGO  =     38    algorithm
   LDIAG  =      T    sub-space diagonalisation (order eigenvalues)
   LSUBROT=      F    optimize rotation matrix (better conditioning)
   TURBO    =      0    0=normal 1=particle mesh
   IRESTART =      0    0=no restart 2=restart with 2 vectors
   NREBOOT  =      0    no. of reboots
   NMIN     =      0    reboot dimension
   EREF     =   0.00    reference energy to select bands
   IMIX   =      4    mixing-type and parameters
     AMIX     =   0.40;   BMIX     =  1.00
     AMIX_MAG =   1.60;   BMIX_MAG =  1.00
     AMIN     =   0.10
     WC   =   100.;   INIMIX=   1;  MIXPRE=   1;  MAXMIX= -45

 Intra band minimization:
   WEIMIN = 0.0000     energy-eigenvalue tresh-hold
   EBREAK =  0.10E-05  absolut break condition
   DEPER  =   0.30     relativ break condition  

   TIME   =   0.40     timestep for ELM

  volume/ion in A,a.u.               =      20.76       140.11
  Fermi-wavevector in a.u.,A,eV,Ry     =   1.524011  2.879964 31.601030  2.322610
  Thomas-Fermi vector in A             =   2.632376
 
 Write flags
   LWAVE        =      F    write WAVECAR
   LDOWNSAMPLE  =      F    k-point downsampling of WAVECAR
   LCHARG       =      T    write CHGCAR
   LVTOT        =      F    write LOCPOT, total local potential
   LVHAR        =      T    write LOCPOT, Hartree potential only
   LELF         =      T    write electronic localiz. function (ELF)
   LORBIT       =     11    0 simple, 1 ext, 2 COOP (PROOUT), +10 PAW based schemes


 Dipole corrections
   LMONO  =      F    monopole corrections only (constant potential shift)
   LDIPOL =      F    correct potential (dipole corrections)
   IDIPOL =      0    1-x, 2-y, 3-z, 4-all directions 
   EPSILON=  1.0000000 bulk dielectric constant

 Exchange correlation treatment:
   GGA     =    --    GGA type
   LEXCH   =     8    internal setting for exchange type
   LIBXC   =     F    Libxc                    
   VOSKOWN =     0    Vosko Wilk Nusair interpolation
   LHFCALC =     F    Hartree Fock is set to
   LHFONE  =     F    Hartree Fock one center treatment
   AEXX    =    0.0000 exact exchange contribution

 Linear response parameters
   LEPSILON=     F    determine dielectric tensor
   LRPA    =     F    only Hartree local field effects (RPA)
   LNABLA  =     F    use nabla operator in PAW spheres
   LVEL    =     F    velocity operator in full k-point grid
   CSHIFT  =0.1000    complex shift for real part using Kramers Kronig
   OMEGAMAX=  -1.0    maximum frequency
   DEG_THRESHOLD= 0.2000000E-02 threshold for treating states as degnerate
   RTIME   =   -0.100 relaxation time in fs
  (WPLASMAI=    0.000 imaginary part of plasma frequency in eV, 0.658/RTIME)
   DFIELD  = 0.0000000 0.0000000 0.0000000 field for delta impulse in time
 
  Optional k-point grid parameters
   LKPOINTS_OPT  =     F    use optional k-point grid
   KPOINTS_OPT_MODE=     1    mode for optional k-point grid
 
 Orbital magnetization related:
   ORBITALMAG=     F  switch on orbital magnetization
   LCHIMAG   =     F  perturbation theory with respect to B field
   DQ        =  0.001000  dq finite difference perturbation B field
   LLRAUG    =     F  two centre corrections for induced B field



--------------------------------------------------------------------------------------------------------


 Static calculation
 charge density and potential will be updated during run
 spin polarized calculation
 Variant of blocked Davidson
 Davidson routine will perform the subspace rotation
 perform sub-space diagonalisation
    after iterative eigenvector-optimisation
 modified Broyden-mixing scheme, WC =      100.0
 initial mixing is a Kerker type mixing with AMIX =  0.4000 and BMIX =      1.0000
 Hartree-type preconditioning will be used
 using additional bands            14
 real space projection scheme for non local part
 use partial core corrections
 calculate Harris-corrections to forces 
   (improved forces if not selfconsistent)
 use gradient corrections 
 use of overlap-Matrix (Vanderbilt PP)
 Fermi weights with tetrahedron method with Bloechl corrections


--------------------------------------------------------------------------------------------------------


  energy-cutoff  :      520.00
  volume of cell :       83.05
      direct lattice vectors                 reciprocal lattice vectors
     0.000000000  3.462860000  3.462860000    -0.144389320  0.144389320  0.144389320
     3.462860000  0.000000000  3.462860000     0.144389320 -0.144389320  0.144389320
     3.462860000  3.462860000  0.000000000     0.144389320  0.144389320 -0.144389320

  length of vectors
     4.897223577  4.897223577  4.897223577     0.250089638  0.250089638  0.250089638


 
 k-points in units of 2pi/SCALE and weight: Kpoints from vasprun.xml                
   0.00000000  0.00000000  0.00000000       0.005
  -0.02406489  0.02406489  0.02406489       0.037
  -0.04812977  0.04812977  0.04812977       0.037
  -0.07219466  0.07219466  0.07219466       0.019
   0.00000000  0.00000000  0.04812977       0.028
  -0.02406489  0.02406489  0.07219466       0.111
  -0.04812977  0.04812977  0.09625955       0.111
   0.07219466 -0.07219466 -0.02406489       0.111
   0.04812977 -0.04812977  0.00000000       0.056
   0.00000000  0.00000000  0.09625955       0.028
  -0.02406489  0.02406489  0.12032443       0.111
   0.09625955 -0.09625955  0.00000000       0.056
   0.00000000  0.00000000  0.14438932       0.014
   0.00000000  0.04812977  0.09625955       0.111
   0.12032443 -0.07219466 -0.02406489       0.111
   0.14438932 -0.09625955  0.00000000       0.056
 
 k-points in reciprocal lattice and weights: Kpoints from vasprun.xml                
   0.00000000  0.00000000  0.00000000       0.005
   0.16666667  0.00000000  0.00000000       0.037
   0.33333333  0.00000000  0.00000000       0.037
   0.50000000  0.00000000  0.00000000       0.019
   0.16666667  0.16666667  0.00000000       0.028
   0.33333333  0.16666667  0.00000000       0.111
   0.50000000  0.16666667  0.00000000       0.111
  -0.33333333  0.16666667  0.00000000       0.111
  -0.16666667  0.16666667  0.00000000       0.056
   0.33333333  0.33333333  0.00000000       0.028
   0.50000000  0.33333333  0.00000000       0.111
  -0.33333333  0.33333333  0.00000000       0.056
   0.50000000  0.50000000  0.00000000       0.014
   0.50000000  0.33333333  0.16666667       0.111
  -0.33333333  0.33333333  0.16666667       0.111
  -0.33333333  0.50000000  0.16666667       0.056
 
 position of ions in fractional coordinates (direct lattice) 
   0.25000000  0.25000000  0.25000000
   0.75000000  0.75000000  0.75000000
   0.50000000  0.50000000  0.50000000
   0.00000000  0.00000000  0.00000000
 
 position of ions in cartesian coordinates  (Angst):
   1.73143000  1.73143000  1.73143000
   5.19429000  5.19429000  5.19429000
   3.46286000  3.46286000  3.46286000
   0.00000000  0.00000000  0.00000000
 


--------------------------------------------------------------------------------------------------------


 k-point   1 :   0.0000 0.0000 0.0000  plane waves:    2229
 k-point   2 :   0.1667 0.0000 0.0000  plane waves:    2214
 k-point   3 :   0.3333 0.0000 0.0000  plane waves:    2247
 k-point   4 :   0.5000 0.0000 0.0000  plane waves:    2252
 k-point   5 :   0.1667 0.1667 0.0000  plane waves:    2225
 k-point   6 :   0.3333 0.1667 0.0000  plane waves:    2240
 k-point   7 :   0.5000 0.1667 0.0000  plane waves:    2231
 k-point   8 :  -0.3333 0.1667 0.0000  plane waves:    2226
 k-point   9 :  -0.1667 0.1667 0.0000  plane waves:    2231
 k-point  10 :   0.3333 0.3333 0.0000  plane waves:    2253
 k-point  11 :   0.5000 0.3333 0.0000  plane waves:    2238
 k-point  12 :  -0.3333 0.3333 0.0000  plane waves:    2231
 k-point  13 :   0.5000 0.5000 0.0000  plane waves:    2232
 k-point  14 :   0.5000 0.3333 0.1667  plane waves:    2241
 k-point  15 :  -0.3333 0.3333 0.1667  plane waves:    2244
 k-point  16 :  -0.3333 0.5000 0.1667  plane waves:    2238

 maximum and minimum number of plane-waves per node :      2253     2214

 maximum number of plane-waves:      2253
 maximum index in each direction: 
   IXMAX=    9   IYMAX=    9   IZMAX=    9
   IXMIN=   -9   IYMIN=   -9   IZMIN=   -9


 serial   3D FFT for wavefunctions
 parallel 3D FFT for charge:
    minimum data exchange during FFTs selected (reduces bandwidth)


 total amount of memory used by VASP MPI-rank0    79634. kBytes
=======================================================================

   base      :      30000. kBytes
   nonlr-proj:       8610. kBytes
   fftplans  :      13984. kBytes
   grid      :      12172. kBytes
   one-center:        393. kBytes
   wavefun   :      14475. kBytes
 
     INWAV:  cpu time      0.0001: real time      0.0006
 Broyden mixing: mesh for mixing (old mesh)
   NGX = 19   NGY = 19   NGZ = 19
  (NGX  = 72   NGY  = 72   NGZ  = 72)
  gives a total of   6859 points

 initial charge density was supplied:
 charge density of overlapping atoms calculated
 number of electron      67.0000000 magnetization      15.2000000
 keeping initial charge density in first step


--------------------------------------------------------------------------------------------------------


 Maximum index for non-local projection operator          9909
 Maximum index for augmentation-charges         64639 (set IRDMAX)


--------------------------------------------------------------------------------------------------------


 First call to EWALD:  gamma=   0.406
 Maximum number of real-space cells 3x 3x 3
 Maximum number of reciprocal cells 3x 3x 3

    FEWALD:  cpu time      0.0011: real time      0.0011


--------------------------------------- Iteration      1(   1)  ---------------------------------------


    POTLOK:  cpu time      0.0945: real time      0.1372
    SETDIJ:  cpu time      1.0011: real time      1.0016
     EDDAV:  cpu time      1.7002: real time      1.7039
 BZINTS: Fermi energy:   15.937151;   67.000000 electrons
         Band energy:-0.240433E+03;  BLOECHL correction:   -0.233544
       DOS:  cpu time      0.0165: real time      0.0165
    --------------------------------------------
      LOOP:  cpu time      2.8123: real time      2.8592

 eigenvalue-minimisations  :  4504
 total energy-change (2. order) : 0.5766603E+03  (-0.3070732E+04)
 number of electron      67.0000000 magnetization      15.2000000
 augmentation part       67.0000000 magnetization      15.2000000

 Free energy of the ion-electron system (eV)
  ---------------------------------------------------
  alpha Z        PSCENC =       769.96029355
  Ewald energy   TEWEN  =     -8534.42252439
  -Hartree energ DENC   =     -3242.73798337
  -exchange      EXHF   =         0.00000000
  -V(xc)+E(xc)   XCENC  =       349.52735663
  PAW double counting   =      9977.89932366   -10498.43186618
  entropy T*S    EENTRO =         0.00000000
  eigenvalues    EBANDS =      -240.43319370
  atomic energy  EATOM  =     11995.29888361
  Solvation  Ediel_sol  =         0.00000000
  ---------------------------------------------------
  free energy    TOTEN  =       576.66028981 eV

  energy without entropy =      576.66028981  energy(sigma->0) =      576.66028981


--------------------------------------------------------------------------------------------------------




--------------------------------------- Iteration      1(   2)  ---------------------------------------


     EDDAV:  cpu time      1.3868: real time      1.3887
 BZINTS: Fermi energy:    5.800510;   67.000000 electrons
         Band energy:-0.777928E+03;  BLOECHL correction:   -0.056603
       DOS:  cpu time      0.0147: real time      0.0147
    --------------------------------------------
      LOOP:  cpu time      1.4016: real time      1.4034

 eigenvalue-minimisations  :  3608
 total energy-change (2. order) :-0.5374946E+03  (-0.5023621E+03)
 number of electron      67.0000000 magnetization      15.2000000
 augmentation part       67.0000000 magnetization      15.2000000

 Free energy of the ion-electron system (eV)
  ---------------------------------------------------
  alpha Z        PSCENC =       769.96029355
  Ewald energy   TEWEN  =     -8534.42252439
  -Hartree energ DENC   =     -3242.73798337
  -exchange      EXHF   =         0.00000000
  -V(xc)+E(xc)   XCENC  =       349.52735663
  PAW double counting   =      9977.89932366   -10498.43186618
  entropy T*S    EENTRO =         0.00000000
  eigenvalues    EBANDS =      -777.92777985
  atomic energy  EATOM  =     11995.29888361
  Solvation  Ediel_sol  =         0.00000000
  ---------------------------------------------------
  free energy    TOTEN  =        39.16570366 eV

  energy without entropy =       39.16570366  energy(sigma->0) =       39.16570366


--------------------------------------------------------------------------------------------------------




--------------------------------------- Iteration      1(   3)  ---------------------------------------


     EDDAV:  cpu time      1.3645: real time      1.3660
 BZINTS: Fermi energy:    4.275277;   67.000000 electrons
         Band energy:-0.855874E+03;  BLOECHL correction:   -0.043635
       DOS:  cpu time      0.0139: real time      0.0139
    --------------------------------------------
      LOOP:  cpu time      1.3783: real time      1.3798

 eigenvalue-minimisations  :  3512
 total energy-change (2. order) :-0.7794644E+02  (-0.7281249E+02)
 number of electron      67.0000000 magnetization      15.2000000
 augmentation part       67.0000000 magnetization      15.2000000

 Free energy of the ion-electron system (eV)
  ---------------------------------------------------
  alpha Z        PSCENC =       769.96029355
  Ewald energy   TEWEN  =     -8534.42252439
  -Hartree energ DENC   =     -3242.73798337
  -exchange      EXHF   =         0.00000000
  -V(xc)+E(xc)   XCENC  =       349.52735663
  PAW double counting   =      9977.89932366   -10498.43186618
  entropy T*S    EENTRO =         0.00000000
  eigenvalues    EBANDS =      -855.87422216
  atomic energy  EATOM  =     11995.29888361
  Solvation  Ediel_sol  =         0.00000000
  ---------------------------------------------------
  free energy    TOTEN  =       -38.78073865 eV

  energy without entropy =      -38.78073865  energy(sigma->0) =      -38.78073865


--------------------------------------------------------------------------------------------------------




--------------------------------------- Iteration      1(   4)  ---------------------------------------


     EDDAV:  cpu time      1.7555: real time      1.7575
 BZINTS: Fermi energy:    4.158114;   67.000000 electrons
         Band energy:-0.864051E+03;  BLOECHL correction:   -0.045070
       DOS:  cpu time      0.0142: real time      0.0142
    --------------------------------------------
      LOOP:  cpu time      1.7697: real time      1.7717

 eigenvalue-minimisations  :  4728
 total energy-change (2. order) :-0.8177228E+01  (-0.7850767E+01)
 number of electron      67.0000000 magnetization      15.2000000
 augmentation part       67.0000000 magnetization      15.2000000

 Free energy of the ion-electron system (eV)
  ---------------------------------------------------
  alpha Z        PSCENC =       769.96029355
  Ewald energy   TEWEN  =     -8534.42252439
  -Hartree energ DENC   =     -3242.73798337
  -exchange      EXHF   =         0.00000000
  -V(xc)+E(xc)   XCENC  =       349.52735663
  PAW double counting   =      9977.89932366   -10498.43186618
  entropy T*S    EENTRO =         0.00000000
  eigenvalues    EBANDS =      -864.05145056
  atomic energy  EATOM  =     11995.29888361
  Solvation  Ediel_sol  =         0.00000000
  ---------------------------------------------------
  free energy    TOTEN  =       -46.95796705 eV

  energy without entropy =      -46.95796705  energy(sigma->0) =      -46.95796705


--------------------------------------------------------------------------------------------------------




--------------------------------------- Iteration      1(   5)  ---------------------------------------


     EDDAV:  cpu time      1.7900: real time      1.7920
 BZINTS: Fermi energy:    4.151760;   67.000000 electrons
         Band energy:-0.864480E+03;  BLOECHL correction:   -0.047214
       DOS:  cpu time      0.0137: real time      0.0137
    CHARGE:  cpu time      0.1175: real time      0.1176
    MIXING:  cpu time      0.0009: real time      0.0009
    --------------------------------------------
      LOOP:  cpu time      1.9221: real time      1.9242

 eigenvalue-minimisations  :  4896
 total energy-change (2. order) :-0.4285945E+00  (-0.4220787E+00)
 number of electron      67.0000001 magnetization       7.2479294
 augmentation part       30.9347939 magnetization       4.7353300

 Broyden mixing:
  rms(total) = 0.82612E+01    rms(broyden)= 0.82611E+01
  rms(prec ) = 0.21591E+02
  weight for this iteration     100.00

 Free energy of the ion-electron system (eV)
  ---------------------------------------------------
  alpha Z        PSCENC =       769.96029355
  Ewald energy   TEWEN  =     -8534.42252439
  -Hartree energ DENC   =     -3242.73798337
  -exchange      EXHF   =         0.00000000
  -V(xc)+E(xc)   XCENC  =       349.52735663
  PAW double counting   =      9977.89932366   -10498.43186618
  entropy T*S    EENTRO =         0.00000000
  eigenvalues    EBANDS =      -864.48004502
  atomic energy  EATOM  =     11995.29888361
  Solvation  Ediel_sol  =         0.00000000
  ---------------------------------------------------
  free energy    TOTEN  =       -47.38656151 eV

  energy without entropy =      -47.38656151  energy(sigma->0) =      -47.38656151


--------------------------------------------------------------------------------------------------------




--------------------------------------- Iteration      1(   6)  ---------------------------------------


    POTLOK:  cpu time      0.0064: real time      0.0076
    SETDIJ:  cpu time      0.9937: real time      0.9943
     EDDAV:  cpu time      1.8535: real time      1.8550
 BZINTS: Fermi energy:   11.662723;   67.000000 electrons
         Band energy:-0.142087E+04;  BLOECHL correction:   -0.108668
       DOS:  cpu time      0.0129: real time      0.0129
    CHARGE:  cpu time      0.1139: real time      0.1139
    MIXING:  cpu time      0.0013: real time      0.0041
    --------------------------------------------
      LOOP:  cpu time      2.9816: real time      2.9877

 eigenvalue-minimisations  :  5056
 total energy-change (2. order) :-0.5476933E+03  (-0.4885212E+03)
 number of electron      67.0000000 magnetization       6.1664685
 augmentation part       18.2618603 magnetization       4.7868440

 Broyden mixing:
  rms(total) = 0.67265E+02    rms(broyden)= 0.67265E+02
  rms(prec ) = 0.73282E+02
  weight for this iteration     100.00

 eigenvalues of (default mixing * dielectric matrix)
  average eigenvalue GAMMA=   0.0155
  0.0155

 Free energy of the ion-electron system (eV)
  ---------------------------------------------------
  alpha Z        PSCENC =       769.96029355
  Ewald energy   TEWEN  =     -8534.42252439
  -Hartree energ DENC   =     -3039.66957324
  -exchange      EXHF   =         0.00000000
  -V(xc)+E(xc)   XCENC  =       340.15638025
  PAW double counting   =     10028.13859885   -10733.66797749
  entropy T*S    EENTRO =         0.00000000
  eigenvalues    EBANDS =     -1420.87395145
  atomic energy  EATOM  =     11995.29888361
  Solvation  Ediel_sol  =         0.00000000
  ---------------------------------------------------
  free energy    TOTEN  =      -595.07987031 eV

  energy without entropy =     -595.07987031  energy(sigma->0) =     -595.07987031


--------------------------------------------------------------------------------------------------------




--------------------------------------- Iteration      1(   7)  ---------------------------------------


    POTLOK:  cpu time      0.0065: real time      0.0072
    SETDIJ:  cpu time      0.9937: real time      0.9942
     EDDAV:  cpu time      2.0284: real time      2.0296
 BZINTS: Fermi energy:    9.837672;   67.000000 electrons
         Band energy:-0.135698E+04;  BLOECHL correction:   -0.092173
       DOS:  cpu time      0.0130: real time      0.0130
    CHARGE:  cpu time      0.1136: real time      0.1137
    MIXING:  cpu time      0.0010: real time      0.0010
    --------------------------------------------
      LOOP:  cpu time      3.1561: real time      3.1587

 eigenvalue-minimisations  :  5632
 total energy-change (2. order) : 0.1752007E+03  (-0.3963632E+02)
 number of electron      67.0000000 magnetization       5.9917147
 augmentation part       18.2335883 magnetization       4.9296276

 Broyden mixing:
  rms(total) = 0.11129E+03    rms(broyden)= 0.11129E+03
  rms(prec ) = 0.11503E+03
  weight for this iteration     100.00

 eigenvalues of (default mixing * dielectric matrix)
  average eigenvalue GAMMA=   0.0167
  0.0245  0.0090

 Free energy of the ion-electron system (eV)
  ---------------------------------------------------
  alpha Z        PSCENC =       769.96029355
  Ewald energy   TEWEN  =     -8534.42252439
  -Hartree energ DENC   =     -2980.99875107
  -exchange      EXHF   =         0.00000000
  -V(xc)+E(xc)   XCENC  =       337.44572760
  PAW double counting   =     23600.63183515   -24250.81474323
  entropy T*S    EENTRO =         0.00000000
  eigenvalues    EBANDS =     -1356.97989525
  atomic energy  EATOM  =     11995.29888361
  Solvation  Ediel_sol  =         0.00000000
  ---------------------------------------------------
  free energy    TOTEN  =      -419.87917404 eV

  energy without entropy =     -419.87917404  energy(sigma->0) =     -419.87917404


--------------------------------------------------------------------------------------------------------




--------------------------------------- Iteration      1(   8)  ---------------------------------------


    POTLOK:  cpu time      0.0068: real time      0.0075
    SETDIJ:  cpu time      1.0034: real time      1.0041
     EDDAV:  cpu time      2.1411: real time      2.1424
 BZINTS: Fermi energy:    9.730513;   67.000000 electrons
         Band energy:-0.136820E+04;  BLOECHL correction:   -0.118466
       DOS:  cpu time      0.0129: real time      0.0129
    CHARGE:  cpu time      0.1141: real time      0.1142
    MIXING:  cpu time      0.0011: real time      0.0011
    --------------------------------------------
      LOOP:  cpu time      3.2794: real time      3.2822

 eigenvalue-minimisations  :  5960
 total energy-change (2. order) : 0.5423831E+01  (-0.1302089E+02)
 number of electron      67.0000000 magnetization       5.7715108
 augmentation part       18.0608265 magnetization       4.7642664

 Broyden mixing:
  rms(total) = 0.14581E+03    rms(broyden)= 0.14581E+03
  rms(prec ) = 0.14882E+03
  weight for this iteration     100.00

 eigenvalues of (default mixing * dielectric matrix)
  average eigenvalue GAMMA=   0.0926
  0.1108  0.0835  0.0835

 Free energy of the ion-electron system (eV)
  ---------------------------------------------------
  alpha Z        PSCENC =       769.96029355
  Ewald energy   TEWEN  =     -8534.42252439
  -Hartree energ DENC   =     -2968.64847076
  -exchange      EXHF   =         0.00000000
  -V(xc)+E(xc)   XCENC  =       336.92223046
  PAW double counting   =     11254.35710730   -11899.72003573
  entropy T*S    EENTRO =         0.00000000
  eigenvalues    EBANDS =     -1368.20282682
  atomic energy  EATOM  =     11995.29888361
  Solvation  Ediel_sol  =         0.00000000
  ---------------------------------------------------
  free energy    TOTEN  =      -414.45534278 eV

  energy without entropy =     -414.45534278  energy(sigma->0) =     -414.45534278


--------------------------------------------------------------------------------------------------------




--------------------------------------- Iteration      1(   9)  ---------------------------------------


    POTLOK:  cpu time      0.0065: real time      0.0077
    SETDIJ:  cpu time      0.9858: real time      0.9862
     EDDAV:  cpu time      2.0322: real time      2.0333
 BZINTS: Fermi energy:    9.598902;   67.000000 electrons
         Band energy:-0.136121E+04;  BLOECHL correction:   -0.064244
       DOS:  cpu time      0.0127: real time      0.0127
    CHARGE:  cpu time      0.1139: real time      0.1139
    MIXING:  cpu time      0.0010: real time      0.0010
    --------------------------------------------
      LOOP:  cpu time      3.1520: real time      3.1550

 eigenvalue-minimisations  :  5656
 total energy-change (2. order) : 0.2132908E+02  (-0.1022364E+01)
 number of electron      67.0000000 magnetization       5.8106480
 augmentation part       17.9882669 magnetization       4.8839285

 Broyden mixing:
  rms(total) = 0.14726E+03    rms(broyden)= 0.14726E+03
  rms(prec ) = 0.15020E+03
  weight for this iteration     100.00

 eigenvalues of (default mixing * dielectric matrix)
  average eigenvalue GAMMA=   0.3598
  0.4960  0.4960  0.3426  0.1046

 Free energy of the ion-electron system (eV)
  ---------------------------------------------------
  alpha Z        PSCENC =       769.96029355
  Ewald energy   TEWEN  =     -8534.42252439
  -Hartree energ DENC   =     -2959.22109947
  -exchange      EXHF   =         0.00000000
  -V(xc)+E(xc)   XCENC  =       336.47609693
  PAW double counting   =     10076.88038241   -10716.88811284
  entropy T*S    EENTRO =         0.00000000
  eigenvalues    EBANDS =     -1361.21018632
  atomic energy  EATOM  =     11995.29888361
  Solvation  Ediel_sol  =         0.00000000
  ---------------------------------------------------
  free energy    TOTEN  =      -393.12626652 eV

  energy without entropy =     -393.12626652  energy(sigma->0) =     -393.12626652


--------------------------------------------------------------------------------------------------------




--------------------------------------- Iteration      1(  10)  ---------------------------------------


    POTLOK:  cpu time      0.0063: real time      0.0072
    SETDIJ:  cpu time      0.9843: real time      0.9847
     EDDAV:  cpu time      1.5355: real time      1.5363
 BZINTS: Fermi energy:    4.469650;   67.000000 electrons
         Band energy:-0.112033E+04;  BLOECHL correction:   -0.082328
       DOS:  cpu time      0.0136: real time      0.0136
    CHARGE:  cpu time      0.1143: real time      0.1145
    MIXING:  cpu time      0.0011: real time      0.0011
    --------------------------------------------
      LOOP:  cpu time      2.6551: real time      2.6573

 eigenvalue-minimisations  :  4080
 total energy-change (2. order) : 0.3476097E+03  (-0.9616119E+02)
 number of electron      67.0000001 magnetization       4.7505414
 augmentation part       37.0771370 magnetization       3.5475538

 Broyden mixing:
  rms(total) = 0.15602E+03    rms(broyden)= 0.15602E+03
  rms(prec ) = 0.15668E+03
  weight for this iteration     100.00

 eigenvalues of (default mixing * dielectric matrix)
  average eigenvalue GAMMA=   0.5463
  0.7396  0.7396  0.5740  0.5740  0.1042

 Free energy of the ion-electron system (eV)
  ---------------------------------------------------
  alpha Z        PSCENC =       769.96029355
  Ewald energy   TEWEN  =     -8534.42252439
  -Hartree energ DENC   =     -2921.47731606
  -exchange      EXHF   =         0.00000000
  -V(xc)+E(xc)   XCENC  =       338.13394242
  PAW double counting   =   1032722.17401708 -1033294.85695137
  entropy T*S    EENTRO =         0.00000000
  eigenvalues    EBANDS =     -1120.32692974
  atomic energy  EATOM  =     11995.29888361
  Solvation  Ediel_sol  =         0.00000000
  ---------------------------------------------------
  free energy    TOTEN  =       -45.51658491 eV

  energy without entropy =      -45.51658491  energy(sigma->0) =      -45.51658491


--------------------------------------------------------------------------------------------------------




--------------------------------------- Iteration      1(  11)  ---------------------------------------


    POTLOK:  cpu time      0.0068: real time      0.0079
    SETDIJ:  cpu time      0.9932: real time      0.9937
     EDDAV:  cpu time      1.4677: real time      1.4690
 BZINTS: Fermi energy:    3.273206;   67.000000 electrons
         Band energy:-0.926237E+03;  BLOECHL correction:   -0.013788
       DOS:  cpu time      0.0140: real time      0.0140
    CHARGE:  cpu time      0.1143: real time      0.1144
    MIXING:  cpu time      0.0013: real time      0.0013
    --------------------------------------------
      LOOP:  cpu time      2.5973: real time      2.6002

 eigenvalue-minimisations  :  3840
 total energy-change (2. order) : 0.1769523E+02  (-0.3308446E+02)
 number of electron      67.0000001 magnetization       5.9077116
 augmentation part       34.0849024 magnetization       5.6818108

 Broyden mixing:
  rms(total) = 0.12943E+03    rms(broyden)= 0.12943E+03
  rms(prec ) = 0.12977E+03
  weight for this iteration     100.00

 eigenvalues of (default mixing * dielectric matrix)
  average eigenvalue GAMMA=   0.5158
  0.6735  0.6735  0.6142  0.6142  0.1041  0.4156

 Free energy of the ion-electron system (eV)
  ---------------------------------------------------
  alpha Z        PSCENC =       769.96029355
  Ewald energy   TEWEN  =     -8534.42252439
  -Hartree energ DENC   =     -3061.42982188
  -exchange      EXHF   =         0.00000000
  -V(xc)+E(xc)   XCENC  =       339.20949467
  PAW double counting   =   1064339.75393880 -1064949.95462902
  entropy T*S    EENTRO =         0.00000000
  eigenvalues    EBANDS =      -926.23699382
  atomic energy  EATOM  =     11995.29888361
  Solvation  Ediel_sol  =         0.00000000
  ---------------------------------------------------
  free energy    TOTEN  =       -27.82135847 eV

  energy without entropy =      -27.82135847  energy(sigma->0) =      -27.82135847


--------------------------------------------------------------------------------------------------------




--------------------------------------- Iteration      1(  12)  ---------------------------------------


    POTLOK:  cpu time      0.0063: real time      0.0074
    SETDIJ:  cpu time      0.9966: real time      0.9974
     EDDAV:  cpu time      1.6823: real time      1.6834
 BZINTS: Fermi energy:    3.891624;   67.000000 electrons
         Band energy:-0.967930E+03;  BLOECHL correction:   -0.026088
       DOS:  cpu time      0.0125: real time      0.0125
    CHARGE:  cpu time      0.1138: real time      0.1139
    MIXING:  cpu time      0.0012: real time      0.0012
    --------------------------------------------
      LOOP:  cpu time      2.8128: real time      2.8159

 eigenvalue-minimisations  :  4536
 total energy-change (2. order) :-0.1633411E+02  (-0.5372506E+01)
 number of electron      67.0000001 magnetization       7.7884528
 augmentation part       30.0102920 magnetization       7.5236244

 Broyden mixing:
  rms(total) = 0.52322E+02    rms(broyden)= 0.52322E+02
  rms(prec ) = 0.52379E+02
  weight for this iteration     100.00

 eigenvalues of (default mixing * dielectric matrix)
  average eigenvalue GAMMA=   0.4471
  0.6610  0.6610  0.5663  0.5663  0.1041  0.3072  0.2634

 Free energy of the ion-electron system (eV)
  ---------------------------------------------------
  alpha Z        PSCENC =       769.96029355
  Ewald energy   TEWEN  =     -8534.42252439
  -Hartree energ DENC   =     -3061.70528302
  -exchange      EXHF   =         0.00000000
  -V(xc)+E(xc)   XCENC  =       339.61257062
  PAW double counting   =    433279.81044075  -433864.77966505
  entropy T*S    EENTRO =         0.00000000
  eigenvalues    EBANDS =      -967.93018859
  atomic energy  EATOM  =     11995.29888361
  Solvation  Ediel_sol  =         0.00000000
  ---------------------------------------------------
  free energy    TOTEN  =       -44.15547252 eV

  energy without entropy =      -44.15547252  energy(sigma->0) =      -44.15547252


--------------------------------------------------------------------------------------------------------




--------------------------------------- Iteration      1(  13)  ---------------------------------------


    POTLOK:  cpu time      0.0064: real time      0.0076
    SETDIJ:  cpu time      1.0016: real time      1.0026
     EDDAV:  cpu time      1.7259: real time      1.7274
 BZINTS: Fermi energy:    4.026801;   67.000000 electrons
         Band energy:-0.971250E+03;  BLOECHL correction:   -0.016371
       DOS:  cpu time      0.0123: real time      0.0123
    CHARGE:  cpu time      0.1134: real time      0.1135
    MIXING:  cpu time      0.0012: real time      0.0012
    --------------------------------------------
      LOOP:  cpu time      2.8608: real time      2.8646

 eigenvalue-minimisations  :  4696
 total energy-change (2. order) : 0.2794227E+01  (-0.2400353E+01)
 number of electron      67.0000001 magnetization      12.4055853
 augmentation part       30.1851041 magnetization      11.6062045

 Broyden mixing:
  rms(total) = 0.46064E+02    rms(broyden)= 0.46064E+02
  rms(prec ) = 0.46132E+02
  weight for this iteration     100.00

 eigenvalues of (default mixing * dielectric matrix)
  average eigenvalue GAMMA=   0.5470
  0.6693  0.6693  0.7065  0.7065  0.1041  0.5170  0.5170  0.4866

 Free energy of the ion-electron system (eV)
  ---------------------------------------------------
  alpha Z        PSCENC =       769.96029355
  Ewald energy   TEWEN  =     -8534.42252439
  -Hartree energ DENC   =     -3063.32616033
  -exchange      EXHF   =         0.00000000
  -V(xc)+E(xc)   XCENC  =       341.08305017
  PAW double counting   =    371680.43615050  -372259.14139404
  entropy T*S    EENTRO =         0.00000000
  eigenvalues    EBANDS =      -971.24954417
  atomic energy  EATOM  =     11995.29888361
  Solvation  Ediel_sol  =         0.00000000
  ---------------------------------------------------
  free energy    TOTEN  =       -41.36124510 eV

  energy without entropy =      -41.36124510  energy(sigma->0) =      -41.36124510


--------------------------------------------------------------------------------------------------------




--------------------------------------- Iteration      1(  14)  ---------------------------------------


    POTLOK:  cpu time      0.0068: real time      0.0073
    SETDIJ:  cpu time      1.0097: real time      1.0104
     EDDAV:  cpu time      1.6952: real time      1.6964
 BZINTS: Fermi energy:    4.579882;   67.000000 electrons
         Band energy:-0.975107E+03;  BLOECHL correction:   -0.084470
       DOS:  cpu time      0.0125: real time      0.0125
    CHARGE:  cpu time      0.1140: real time      0.1140
    MIXING:  cpu time      0.0013: real time      0.0013
    --------------------------------------------
      LOOP:  cpu time      2.8395: real time      2.8420

 eigenvalue-minimisations  :  4584
 total energy-change (2. order) :-0.7604072E+01  (-0.8286492E+00)
 number of electron      67.0000001 magnetization      14.3552460
 augmentation part       29.2987110 magnetization      13.4959577

 Broyden mixing:
  rms(total) = 0.19065E+02    rms(broyden)= 0.19065E+02
  rms(prec ) = 0.19275E+02
  weight for this iteration     100.00

 eigenvalues of (default mixing * dielectric matrix)
  average eigenvalue GAMMA=   0.6326
  1.0836  1.0836  0.7316  0.7316  0.1041  0.5328  0.5328  0.4465  0.4465

 Free energy of the ion-electron system (eV)
  ---------------------------------------------------
  alpha Z        PSCENC =       769.96029355
  Ewald energy   TEWEN  =     -8534.42252439
  -Hartree energ DENC   =     -3086.50161136
  -exchange      EXHF   =         0.00000000
  -V(xc)+E(xc)   XCENC  =       346.04074655
  PAW double counting   =    143013.93987973  -143578.17416221
  entropy T*S    EENTRO =         0.00000000
  eigenvalues    EBANDS =      -975.10682264
  atomic energy  EATOM  =     11995.29888361
  Solvation  Ediel_sol  =         0.00000000
  ---------------------------------------------------
  free energy    TOTEN  =       -48.96531716 eV

  energy without entropy =      -48.96531716  energy(sigma->0) =      -48.96531716


--------------------------------------------------------------------------------------------------------




--------------------------------------- Iteration      1(  15)  ---------------------------------------


    POTLOK:  cpu time      0.0068: real time      0.0072
    SETDIJ:  cpu time      0.9971: real time      0.9978
     EDDAV:  cpu time      1.6453: real time      1.6466
 BZINTS: Fermi energy:    4.675029;   67.000000 electrons
         Band energy:-0.966213E+03;  BLOECHL correction:   -0.101262
       DOS:  cpu time      0.0120: real time      0.0120
    CHARGE:  cpu time      0.1144: real time      0.1145
    MIXING:  cpu time      0.0013: real time      0.0013
    --------------------------------------------
      LOOP:  cpu time      2.7769: real time      2.7795

 eigenvalue-minimisations  :  4424
 total energy-change (2. order) : 0.9384429E+00  (-0.1079961E+01)
 number of electron      67.0000001 magnetization      13.8714293
 augmentation part       29.2683601 magnetization      12.4161932

 Broyden mixing:
  rms(total) = 0.10491E+02    rms(broyden)= 0.10491E+02
  rms(prec ) = 0.10888E+02
  weight for this iteration     100.00

 eigenvalues of (default mixing * dielectric matrix)
  average eigenvalue GAMMA=   0.6492
  1.1541  1.1541  0.7294  0.7294  0.1041  0.5900  0.5900  0.4738  0.4838  0.4838

 Free energy of the ion-electron system (eV)
  ---------------------------------------------------
  alpha Z        PSCENC =       769.96029355
  Ewald energy   TEWEN  =     -8534.42252439
  -Hartree energ DENC   =     -3104.00521609
  -exchange      EXHF   =         0.00000000
  -V(xc)+E(xc)   XCENC  =       349.85803794
  PAW double counting   =     32172.78732713   -32731.29085414
  entropy T*S    EENTRO =         0.00000000
  eigenvalues    EBANDS =      -966.21282183
  atomic energy  EATOM  =     11995.29888361
  Solvation  Ediel_sol  =         0.00000000
  ---------------------------------------------------
  free energy    TOTEN  =       -48.02687422 eV

  energy without entropy =      -48.02687422  energy(sigma->0) =      -48.02687422


--------------------------------------------------------------------------------------------------------




--------------------------------------- Iteration      1(  16)  ---------------------------------------


    POTLOK:  cpu time      0.0069: real time      0.0073
    SETDIJ:  cpu time      1.0029: real time      1.0035
     EDDAV:  cpu time      1.6393: real time      1.6416
 BZINTS: Fermi energy:    4.838718;   67.000000 electrons
         Band energy:-0.915742E+03;  BLOECHL correction:   -0.098630
       DOS:  cpu time      0.0120: real time      0.0120
    CHARGE:  cpu time      0.1138: real time      0.1138
    MIXING:  cpu time      0.0014: real time      0.0014
    --------------------------------------------
      LOOP:  cpu time      2.7763: real time      2.7795

 eigenvalue-minimisations  :  4400
 total energy-change (2. order) :-0.8325827E+00  (-0.4385603E+00)
 number of electron      67.0000001 magnetization      13.2875662
 augmentation part       28.8312212 magnetization      11.8536874

 Broyden mixing:
  rms(total) = 0.11088E+02    rms(broyden)= 0.11088E+02
  rms(prec ) = 0.11559E+02
  weight for this iteration     100.00

 eigenvalues of (default mixing * dielectric matrix)
  average eigenvalue GAMMA=   0.6240
  1.1857  1.1857  0.7288  0.7288  0.6088  0.6088  0.1041  0.4702  0.4702  0.3864
  0.3864

 Free energy of the ion-electron system (eV)
  ---------------------------------------------------
  alpha Z        PSCENC =       769.96029355
  Ewald energy   TEWEN  =     -8534.42252439
  -Hartree energ DENC   =     -3138.05594269
  -exchange      EXHF   =         0.00000000
  -V(xc)+E(xc)   XCENC  =       350.13540345
  PAW double counting   =     17484.01330783   -18060.04677422
  entropy T*S    EENTRO =         0.00000000
  eigenvalues    EBANDS =      -915.74210409
  atomic energy  EATOM  =     11995.29888361
  Solvation  Ediel_sol  =         0.00000000
  ---------------------------------------------------
  free energy    TOTEN  =       -48.85945695 eV

  energy without entropy =      -48.85945695  energy(sigma->0) =      -48.85945695


--------------------------------------------------------------------------------------------------------




--------------------------------------- Iteration      1(  17)  ---------------------------------------


    POTLOK:  cpu time      0.0069: real time      0.0074
    SETDIJ:  cpu time      0.9949: real time      0.9955
     EDDAV:  cpu time      1.7684: real time      1.7694
 BZINTS: Fermi energy:    4.923601;   67.000000 electrons
         Band energy:-0.905081E+03;  BLOECHL correction:   -0.080054
       DOS:  cpu time      0.0121: real time      0.0121
    CHARGE:  cpu time      0.1137: real time      0.1137
    MIXING:  cpu time      0.0014: real time      0.0014
    --------------------------------------------
      LOOP:  cpu time      2.8973: real time      2.8995

 eigenvalue-minimisations  :  4840
 total energy-change (2. order) :-0.1072621E+00  (-0.7739164E-01)
 number of electron      67.0000001 magnetization      13.2703001
 augmentation part       28.5640492 magnetization      11.7420342

 Broyden mixing:
  rms(total) = 0.10081E+02    rms(broyden)= 0.10081E+02
  rms(prec ) = 0.10682E+02
  weight for this iteration     100.00

 eigenvalues of (default mixing * dielectric matrix)
  average eigenvalue GAMMA=   0.6411
  1.2370  1.2370  0.7258  0.7258  0.5690  0.5690  0.1041  0.5572  0.5572  0.4740
  0.4683  0.4683

 Free energy of the ion-electron system (eV)
  ---------------------------------------------------
  alpha Z        PSCENC =       769.96029355
  Ewald energy   TEWEN  =     -8534.42252439
  -Hartree energ DENC   =     -3143.93559486
  -exchange      EXHF   =         0.00000000
  -V(xc)+E(xc)   XCENC  =       349.56494740
  PAW double counting   =     14736.74520985   -15317.09659489
  entropy T*S    EENTRO =         0.00000000
  eigenvalues    EBANDS =      -905.08133935
  atomic energy  EATOM  =     11995.29888361
  Solvation  Ediel_sol  =         0.00000000
  ---------------------------------------------------
  free energy    TOTEN  =       -48.96671907 eV

  energy without entropy =      -48.96671907  energy(sigma->0) =      -48.96671907


--------------------------------------------------------------------------------------------------------




--------------------------------------- Iteration      1(  18)  ---------------------------------------


    POTLOK:  cpu time      0.0064: real time      0.0076
    SETDIJ:  cpu time      0.9989: real time      1.0005
     EDDAV:  cpu time      1.7493: real time      1.7506
 BZINTS: Fermi energy:    4.889192;   67.000000 electrons
         Band energy:-0.905978E+03;  BLOECHL correction:   -0.091671
       DOS:  cpu time      0.0122: real time      0.0122
    CHARGE:  cpu time      0.1136: real time      0.1137
    MIXING:  cpu time      0.0015: real time      0.0014
    --------------------------------------------
      LOOP:  cpu time      2.8819: real time      2.8861

 eigenvalue-minimisations  :  4808
 total energy-change (2. order) : 0.5947219E+00  (-0.8420211E-02)
 number of electron      67.0000001 magnetization      13.4483329
 augmentation part       28.7197395 magnetization      11.9336562

 Broyden mixing:
  rms(total) = 0.10994E+02    rms(broyden)= 0.10994E+02
  rms(prec ) = 0.11467E+02
  weight for this iteration     100.00

 eigenvalues of (default mixing * dielectric matrix)
  average eigenvalue GAMMA=   0.7837
  1.6793  1.6793  0.7235  0.7235  0.9040  0.9040  0.1041  0.6807  0.6807  0.5136
  0.5136  0.5407  0.5407

 Free energy of the ion-electron system (eV)
  ---------------------------------------------------
  alpha Z        PSCENC =       769.96029355
  Ewald energy   TEWEN  =     -8534.42252439
  -Hartree energ DENC   =     -3142.76322780
  -exchange      EXHF   =         0.00000000
  -V(xc)+E(xc)   XCENC  =       349.35564694
  PAW double counting   =     10039.91923715   -10619.74273662
  entropy T*S    EENTRO =         0.00000000
  eigenvalues    EBANDS =      -905.97756960
  atomic energy  EATOM  =     11995.29888361
  Solvation  Ediel_sol  =         0.00000000
  ---------------------------------------------------
  free energy    TOTEN  =       -48.37199716 eV

  energy without entropy =      -48.37199716  energy(sigma->0) =      -48.37199716


--------------------------------------------------------------------------------------------------------




--------------------------------------- Iteration      1(  19)  ---------------------------------------


    POTLOK:  cpu time      0.0064: real time      0.0072
    SETDIJ:  cpu time      0.9949: real time      0.9955
     EDDAV:  cpu time      1.5141: real time      1.5166
 BZINTS: Fermi energy:    5.106555;   67.000000 electrons
         Band energy:-0.872018E+03;  BLOECHL correction:   -0.066341
       DOS:  cpu time      0.0127: real time      0.0127
    CHARGE:  cpu time      0.1139: real time      0.1139
    MIXING:  cpu time      0.0015: real time      0.0015
    --------------------------------------------
      LOOP:  cpu time      2.6436: real time      2.6475

 eigenvalue-minimisations  :  4000
 total energy-change (2. order) : 0.8362413E+00  (-0.1395176E+00)
 number of electron      67.0000001 magnetization      13.7248653
 augmentation part       28.1289887 magnetization      12.1044708

 Broyden mixing:
  rms(total) = 0.10568E+02    rms(broyden)= 0.10568E+02
  rms(prec ) = 0.11108E+02
  weight for this iteration     100.00

 eigenvalues of (default mixing * dielectric matrix)
  average eigenvalue GAMMA=   0.7804
  1.8075  1.8075  0.7243  0.7243  0.9256  0.9256  0.6948  0.6948  0.1041  0.5565
  0.5565  0.4714  0.4714  0.4609

 Free energy of the ion-electron system (eV)
  ---------------------------------------------------
  alpha Z        PSCENC =       769.96029355
  Ewald energy   TEWEN  =     -8534.42252439
  -Hartree energ DENC   =     -3167.78334037
  -exchange      EXHF   =         0.00000000
  -V(xc)+E(xc)   XCENC  =       350.56223326
  PAW double counting   =      7898.81074685    -8487.94427822
  entropy T*S    EENTRO =         0.00000000
  eigenvalues    EBANDS =      -872.01777017
  atomic energy  EATOM  =     11995.29888361
  Solvation  Ediel_sol  =         0.00000000
  ---------------------------------------------------
  free energy    TOTEN  =       -47.53575588 eV

  energy without entropy =      -47.53575588  energy(sigma->0) =      -47.53575588


--------------------------------------------------------------------------------------------------------




[...]
  260          m_sumb_d                              0.000024                          2   4
  261        strnlr                                0.721188                            1   3
  262          rspher_all                            0.067321                          9   4
  263          phaser                                0.184440                        144   4
  264          rpro_isp                              0.465237                        144   4
  265            fftwav_mpi                            0.106847                     3456   5
  266              fftwav                                0.102633                   3456   6
  267                fft3d                                 0.023419                 3456   7
  268            rpromu_acc                            0.145770                      864   5
  269          m_sumb_d                              0.000012                          1   4
  270        fft3d_mpi                             0.003076                           22   3
  271          fftbrc_mpi                            0.002403                         22   4
  272            fftbas_plan_mpi                       0.002395                       22   5
  273              map_forward                           0.000823                     20   6
  274                map_gather                            0.000204                   10   7
  275                m_alltoallv_z                         0.000115                   10   7
  276                map_scatter                           0.000368                   10   7
  277              map_backward                          0.000943                     24   6
  278                map_gather                            0.000224                   12   7
  279                m_alltoallv_z                         0.000114                   12   7
  280                map_scatter                           0.000440                   12   7
  281        m_sumb_d                              0.000030                            5   3
  282        forhar                                0.000936                            2   3
  283          m_sumb_d                              0.000012                          2   4
  284        strehar                               0.000730                            1   3
  285          m_sumb_d                              0.000004                          1   4
  286        chggra                                0.000719                            1   3
  287          fft3d_mpi                             0.000420                          3   4
  288            fftbrc_mpi                            0.000326                        3   5
  289              fftbas_plan_mpi                       0.000326                      3   6
  290                map_forward                           0.000167                    4   7
  291                  map_gather                            0.000039                  2   8
  292                  m_alltoallv_z                         0.000022                  2   8
  293                  map_scatter                           0.000079                  2   8
  294                map_backward                          0.000071                    2   7
  295                  map_gather                            0.000019                  1   8
  296                  m_alltoallv_z                         0.000010                  1   8
  297                  map_scatter                           0.000030                  1   8
  298          m_sumb_d                              0.000009                          2   4
  299          pothar                                0.000075                          1   4
  300            m_sumb_d                              0.000008                        1   5
  301        brmix                                 0.002318                            1   3
  302          m_sumb_d                              0.000023                          6   4
  303          brpre                                 0.000016                          2   4
  304          setg0                                 0.000330                          1   4
  305          broyd                                 0.001496                          1   4
  306            m_sumb_d                              0.000158                       32   5
  307            brsav                                 0.000085                       31   5
  308            brget                                 0.000325                      134   5
  309        m_bcast_d                             0.000018                            2   3
  310      potlok                                0.015046                              2   2
  311        fft3d_mpi                             0.009932                           36   3
  312          fftbrc_mpi                            0.008520                         36   4
  313            fftbas_plan_mpi                       0.008502                       36   5
  314              map_forward                           0.002490                     40   6
  315                map_gather                            0.000840                   24   7
  316                m_alltoallv_z                         0.000697                   24   7
  317                map_scatter                           0.000776                   24   7
  318              map_backward                          0.002172                     32   6
  319                map_gather                            0.000619                   16   7
  320                m_alltoallv_z                         0.000706                   16   7
  321                map_scatter                           0.000677                   16   7
  322              dfftw_execute                         0.002337                     30   6
  323        m_sumb_d                              0.000023                            5   3
  324        pothar                                0.000531                            2   3
  325          m_sumb_d                              0.000047                          2   4
  326        m_bcast_d                             0.000850                            4   3
  327      potlok_metagga                        0.000000                              1   2
  328      set_dd_magatom                        0.000004                              1   2
  329      set_dd_paw                            0.949518                              1   2
  330        m_sumb_d                              0.474424                            7   3
  331      augmentation_charge                   0.063708                              1   2
  332        fft3d_mpi                             0.015995                            2   3
  333          fftbrc_mpi                            0.013992                          2   4
  334            fftbas_plan_mpi                       0.013990                        2   5
  335              dfftw_execute                         0.009777                      6   6
  336              map_backward                          0.003991                      4   6
  337                map_gather                            0.001137                    2   7
  338                m_alltoallv_z                         0.001911                    2   7
  339                map_scatter                           0.000935                    2   7
  340      fftwav_mpi                            0.396879                           1152   2
  341        fftwav                                0.395493                         1152   3
  342          fft3d                                 0.378032                       1152   4
  343      densta                                0.625213                              1   2
 
 Flat profile
 ============
 
             routine name                   CPU           calls
 ---------------------------------------------------------------
 m_sumb_d                               18.574434       73178
 set_dd_paw                             13.090289          28
 lapack                                 11.211720       23288
 init_acc                               11.062042           1
 eddav                                  10.763042          30
 raccmu_                                 6.578161       23288
 total_time                              6.109405           1
 redis_pw                                3.999245      130192
 m_alltoall_d                            2.519437      339472
 acc_init_cublas                         2.465716           1
 setdij_                                 2.442252          54
 phaser                                  1.480022        1168
 fft3d                                   1.437101      141802
 augmentation_charge                     1.331752          27
 redis_proj                              1.098833      165280
 densta                                  1.012993          31
 eccp                                    0.964978       11520
 dfftw_execute                           0.960837        1104
 fftwav                                  0.938429       95226
 acc_init_cusolver                       0.809625           1
 orth1                                   0.795922       69928
 rpromu_acc                              0.710202       18776
 overl                                   0.685969       81664
 racc0mu_acc                             0.684595       23288
 w1_copy                                 0.677392      139728
 soft_charge                             0.542465          26
 m_bcast_z                               0.499099       24824
 hamiltmu                                0.484648       23288
 setup_precond                           0.418012       11520
 m_bcast_d                               0.379658       46637
 overl_mu                                0.363137       23288
 m_alltoallv_z                           0.342601        1223
 ggemm                                   0.310750       29048
 rpro_isp                                0.296242         208
 vhamil                                  0.215937       46576
 kinhamil                                0.215325       46576
 newband                                 0.212335       24248
 fft3d_mpi                               0.202364       47671
 fftext_mpi                              0.201069       46576
 apply_precond                           0.195925       35056
 pw_charge                               0.179625        7450
 depsum                                  0.163577          26
 acc_cufft_makeplan                      0.134672          19
 fftwav_mpi                              0.128134       95226
 map_gather                              0.124933        1223
 map_scatter                             0.120061        1223
 set_charge                              0.108386          26
 rspher_all                              0.100625          14
 potlok                                  0.073514          28
 fftbas_plan_mpi                         0.069214        1095
 elmin                                   0.050241           1
 proall                                  0.041460           1
 lincom                                  0.032520         992
 sphpro_fast                             0.027902           2
 w1_projall                              0.017260       17528
 broyd                                   0.012984          26
 brmix                                   0.011246          26
 setg0                                   0.009072          28
 orthch                                  0.007847           1
 force_and_stress                        0.007795           1
 choleski                                0.007570          32
 map_backward                            0.005301        1134
 map_forward                             0.005152        1056
 inisym                                  0.004797           1
 brget                                   0.004546        1853
 truncate_high_frequency_w1              0.004407       58096
 strnlr                                  0.004178           1
 pothar                                  0.002395          29
 stufak                                  0.001467           1
 fornlr                                  0.001437           1
 brsav                                   0.001163         460
 forhar                                  0.000924           2
 strelo                                  0.000803           1
 strehar                                 0.000726           1
 fftbrc_mpi                              0.000660        1095
 forloc                                  0.000507           1
 fft_gq                                  0.000484          26
 brpre                                   0.000442          52
 fewald                                  0.000360           1
 chggra                                  0.000215           1
 strkin                                  0.000203           1
 set_dd_magatom                          0.000123          28
 vectorpot                               0.000120          27
 brgrid                                  0.000089           1
 posmap                                  0.000058           2
 rsp                                     0.000054           1
 fordep                                  0.000046           1
 crpa_reader                             0.000027           1
 acc_cufft_makeplans                     0.000013           3
 rcp                                     0.000013           1
 potlok_metagga                          0.000003          27
 rotate_active_occupied_orbital          0.000001           1
 redis_pw_over_bands                     0.000000           1
 ---------------------------------------------------------------
  summed up times     108.7533140182495     
 
 Accumulative profile
 ====================
 
             routine name                   CPU           calls
 ---------------------------------------------------------------
 total_time                            108.753314           1
 elmin                                  81.751050           1
 eddav                                  51.926926          30
 set_dd_paw                             26.370360          28
 m_sumb_d                               18.574434       73178
 lapack                                 11.211720       23288
 init_acc                               11.062042           1
 hamiltmu                                9.094804       23288
 raccmu_                                 7.625894       23288
 redis_pw                                5.169772      130192
 force_and_stress                        3.706032           1
 setdij_                                 3.514568          54
 set_charge                              2.979633          26
 m_alltoall_d                            2.519437      339472
 acc_init_cublas                         2.465716           1
 redis_proj                              2.447744      165280
 newband                                 2.426332       24248
 fft3d_mpi                               2.168798       47671
 fftwav_mpi                              2.165990       95226
 fftwav                                  2.037856       95226
 augmentation_charge                     1.758412          27
 fftbrc_mpi                              1.628760        1095
 fftbas_plan_mpi                         1.628099        1095
 phaser                                  1.480022        1168
 fft3d                                   1.437101      141802
 densta                                  1.012993          31
 soft_charge                             0.998022          26
 eccp                                    0.964978       11520
 dfftw_execute                           0.960837        1104
 acc_init_cusolver                       0.809625           1
 orth1                                   0.795922       69928
 kinhamil                                0.768325       46576
 strnlr                                  0.721188           1
 rpromu_acc                              0.710202       18776
 overl                                   0.685969       81664
 racc0mu_acc                             0.684595       23288
 w1_copy                                 0.677392      139728
 rpro_isp                                0.642642         208
 fftext_mpi                              0.552999       46576
 w1_projall                              0.530103       17528
 m_bcast_z                               0.499099       24824
 setup_precond                           0.418012       11520
 fordep                                  0.386524           1
 map_forward                             0.384637        1056
 m_bcast_d                               0.379658       46637
 overl_mu                                0.363137       23288
 m_alltoallv_z                           0.342601        1223
 ggemm                                   0.310750       29048
 potlok                                  0.306580          28
 orthch                                  0.252786           1
 fornlr                                  0.240657           1
 vhamil                                  0.215937       46576
 map_backward                            0.213411        1134
 apply_precond                           0.195925       35056
 pw_charge                               0.179625        7450
 depsum                                  0.165044          26
 acc_cufft_makeplans                     0.134685           3
 acc_cufft_makeplan                      0.134672          19
 map_gather                              0.124933        1223
 map_scatter                             0.120061        1223
 rspher_all                              0.100625          14
 proall                                  0.083873           1
 brmix                                   0.042692          26
 lincom                                  0.032520         992
 sphpro_fast                             0.028720           2
 broyd                                   0.021097          26
 fft_gq                                  0.020633          26
 setg0                                   0.009072          28
 choleski                                0.007570          32
 inisym                                  0.004855           1
 brget                                   0.004546        1853
 truncate_high_frequency_w1              0.004407       58096
 pothar                                  0.002655          29
 stufak                                  0.001467           1
 brsav                                   0.001163         460
 fewald                                  0.001112           1
 forhar                                  0.000936           2
 strelo                                  0.000827           1
 strehar                                 0.000730           1
 chggra                                  0.000719           1
 forloc                                  0.000520           1
 brpre                                   0.000442          52
 strkin                                  0.000210           1
 set_dd_magatom                          0.000123          28
 vectorpot                               0.000120          27
 brgrid                                  0.000089           1
 posmap                                  0.000058           2
 rsp                                     0.000054           1
 crpa_reader                             0.000027           1
 rcp                                     0.000013           1
 potlok_metagga                          0.000003          27
 rotate_active_occupied_orbital          0.000001           1
 redis_pw_over_bands                     0.000000           1
 ---------------------------------------------------------------
 
Profiling took   0.296232  0.148315  0.003167  0.003080 seconds
Profiling took   0.184970 seconds
