   8   8   1   0
  0.1459184E+02  0.7517879E-09  0.7517879E-09  0.7517879E-09  0.5000000E-15
   1.0000000000000000E-004
  CAR 
 unknown system                          
     28.10834260    -65.90412379  301      9.01868420      1.00000000
    -65.904  0.0000E+00  0.0000E+00  0.0000E+00  0.0000E+00
    -65.591  0.0000E+00  0.0000E+00  0.0000E+00  0.0000E+00
    -65.277  0.0000E+00  0.0000E+00  0.0000E+00  0.0000E+00
    -64.964  0.0000E+00  0.0000E+00  0.0000E+00  0.0000E+00
    -64.651  0.0000E+00  0.0000E+00  0.0000E+00  0.0000E+00
    -64.337  0.0000E+00  0.0000E+00  0.0000E+00  0.0000E+00
    -64.024  0.0000E+00  0.0000E+00  0.0000E+00  0.0000E+00
    -63.710  0.0000E+00  0.0000E+00  0.0000E+00  0.0000E+00
    -63.397  0.0000E+00  0.0000E+00  0.0000E+00  0.0000E+00
    -63.084  0.0000E+00  0.0000E+00  0.0000E+00  0.0000E+00
    -62.770  0.0000E+00  0.0000E+00  0.0000E+00  0.0000E+00
    -62.457  0.0000E+00  0.0000E+00  0.0000E+00  0.0000E+00
    -62.144  0.0000E+00  0.0000E+00  0.0000E+00  0.0000E+00
    -61.830  0.0000E+00  0.0000E+00  0.0000E+00  0.0000E+00
    -61.517  0.2579E+00  0.2579E+00  0.8081E-01  0.8081E-01
    -61.204  0.1289E+00  0.1289E+00  0.1212E+00  0.1212E+00
    -60.890  0.0000E+00  0.0000E+00  0.1212E+00  0.1212E+00
    -60.577  0.0000E+00  0.0000E+00  0.1212E+00  0.1212E+00
    -60.263  0.0000E+00  0.0000E+00  0.1212E+00  0.1212E+00
    -59.950  0.0000E+00  0.0000E+00  0.1212E+00  0.1212E+00
    -59.637  0.0000E+00  0.0000E+00  0.1212E+00  0.1212E+00
    -59.323  0.0000E+00  0.0000E+00  0.1212E+00  0.1212E+00
    -59.010  0.0000E+00  0.0000E+00  0.1212E+00  0.1212E+00
    -58.697  0.0000E+00  0.0000E+00  0.1212E+00  0.1212E+00
    -58.383  0.0000E+00  0.0000E+00  0.1212E+00  0.1212E+00
    -58.070  0.0000E+00  0.0000E+00  0.1212E+00  0.1212E+00
    -57.756  0.0000E+00  0.0000E+00  0.1212E+00  0.1212E+00
    -57.443  0.0000E+00  0.0000E+00  0.1212E+00  0.1212E+00
    -57.130  0.0000E+00  0.0000E+00  0.1212E+00  0.1212E+00
    -56.816  0.0000E+00  0.0000E+00  0.1212E+00  0.1212E+00
    -56.503  0.0000E+00  0.0000E+00  0.1212E+00  0.1212E+00
    -56.190  0.0000E+00  0.0000E+00  0.1212E+00  0.1212E+00
    -55.876  0.0000E+00  0.0000E+00  0.1212E+00  0.1212E+00
    -55.563  0.0000E+00  0.0000E+00  0.1212E+00  0.1212E+00
    -55.249  0.0000E+00  0.0000E+00  0.1212E+00  0.1212E+00
    -54.936  0.0000E+00  0.0000E+00  0.1212E+00  0.1212E+00
    -54.623  0.0000E+00  0.0000E+00  0.1212E+00  0.1212E+00
    -54.309  0.0000E+00  0.0000E+00  0.1212E+00  0.1212E+00
    -53.996  0.0000E+00  0.0000E+00  0.1212E+00  0.1212E+00
    -53.683  0.9670E-01  0.9670E-01  0.1515E+00  0.1515E+00
    -53.369  0.0000E+00  0.0000E+00  0.1515E+00  0.1515E+00
    -53.056  0.0000E+00  0.0000E+00  0.1515E+00  0.1515E+00
    -52.742  0.0000E+00  0.0000E+00  0.1515E+00  0.1515E+00
    -52.429  0.0000E+00  0.0000E+00  0.1515E+00  0.1515E+00
    -52.116  0.0000E+00  0.0000E+00  0.1515E+00  0.1515E+00
    -51.802  0.0000E+00  0.0000E+00  0.1515E+00  0.1515E+00
    -51.489  0.0000E+00  0.0000E+00  0.1515E+00  0.1515E+00
    -51.176  0.0000E+00  0.0000E+00  0.1515E+00  0.1515E+00
    -50.862  0.0000E+00  0.0000E+00  0.1515E+00  0.1515E+00
    -50.549  0.0000E+00  0.0000E+00  0.1515E+00  0.1515E+00
    -50.235  0.0000E+00  0.0000E+00  0.1515E+00  0.1515E+00
    -49.922  0.0000E+00  0.0000E+00  0.1515E+00  0.1515E+00
    -49.609  0.0000E+00  0.0000E+00  0.1515E+00  0.1515E+00
    -49.295  0.0000E+00  0.0000E+00  0.1515E+00  0.1515E+00
    -48.982  0.0000E+00  0.0000E+00  0.1515E+00  0.1515E+00
    -48.669  0.0000E+00  0.0000E+00  0.1515E+00  0.1515E+00
    -48.355  0.0000E+00  0.0000E+00  0.1515E+00  0.1515E+00
    -48.042  0.0000E+00  0.0000E+00  0.1515E+00  0.1515E+00
    -47.728  0.0000E+00  0.0000E+00  0.1515E+00  0.1515E+00
    -47.415  0.0000E+00  0.0000E+00  0.1515E+00  0.1515E+00
    -47.102  0.0000E+00  0.0000E+00  0.1515E+00  0.1515E+00
    -46.788  0.0000E+00  0.0000E+00  0.1515E+00  0.1515E+00
    -46.475  0.0000E+00  0.0000E+00  0.1515E+00  0.1515E+00
    -46.162  0.0000E+00  0.0000E+00  0.1515E+00  0.1515E+00
    -45.848  0.0000E+00  0.0000E+00  0.1515E+00  0.1515E+00
    -45.535  0.0000E+00  0.0000E+00  0.1515E+00  0.1515E+00
    -45.221  0.0000E+00  0.0000E+00  0.1515E+00  0.1515E+00
    -44.908  0.0000E+00  0.0000E+00  0.1515E+00  0.1515E+00
    -44.595  0.0000E+00  0.0000E+00  0.1515E+00  0.1515E+00
    -44.281  0.0000E+00  0.0000E+00  0.1515E+00  0.1515E+00
    -43.968  0.0000E+00  0.0000E+00  0.1515E+00  0.1515E+00
    -43.655  0.0000E+00  0.0000E+00  0.1515E+00  0.1515E+00
    -43.341  0.0000E+00  0.0000E+00  0.1515E+00  0.1515E+00
    -43.028  0.0000E+00  0.0000E+00  0.1515E+00  0.1515E+00
    -42.714  0.0000E+00  0.0000E+00  0.1515E+00  0.1515E+00
    -42.401  0.0000E+00  0.0000E+00  0.1515E+00  0.1515E+00
    -42.088  0.0000E+00  0.0000E+00  0.1515E+00  0.1515E+00
    -41.774  0.0000E+00  0.0000E+00  0.1515E+00  0.1515E+00
    -41.461  0.0000E+00  0.0000E+00  0.1515E+00  0.1515E+00
    -41.148  0.0000E+00  0.0000E+00  0.1515E+00  0.1515E+00
    -40.834  0.0000E+00  0.0000E+00  0.1515E+00  0.1515E+00
    -40.521  0.0000E+00  0.0000E+00  0.1515E+00  0.1515E+00
    -40.207  0.0000E+00  0.0000E+00  0.1515E+00  0.1515E+00
    -39.894  0.0000E+00  0.0000E+00  0.1515E+00  0.1515E+00
    -39.581  0.0000E+00  0.0000E+00  0.1515E+00  0.1515E+00
    -39.267  0.0000E+00  0.0000E+00  0.1515E+00  0.1515E+00
    -38.954  0.0000E+00  0.0000E+00  0.1515E+00  0.1515E+00
    -38.641  0.0000E+00  0.0000E+00  0.1515E+00  0.1515E+00
    -38.327  0.0000E+00  0.0000E+00  0.1515E+00  0.1515E+00
    -38.014  0.0000E+00  0.0000E+00  0.1515E+00  0.1515E+00
    -37.700  0.0000E+00  0.0000E+00  0.1515E+00  0.1515E+00
    -37.387  0.0000E+00  0.0000E+00  0.1515E+00  0.1515E+00
    -37.074  0.0000E+00  0.0000E+00  0.1515E+00  0.1515E+00
    -36.760  0.0000E+00  0.0000E+00  0.1515E+00  0.1515E+00
    -36.447  0.0000E+00  0.0000E+00  0.1515E+00  0.1515E+00
    -36.134  0.0000E+00  0.0000E+00  0.1515E+00  0.1515E+00
    -35.820  0.0000E+00  0.0000E+00  0.1515E+00  0.1515E+00
    -35.507  0.0000E+00  0.0000E+00  0.1515E+00  0.1515E+00
    -35.193  0.0000E+00  0.0000E+00  0.1515E+00  0.1515E+00
    -34.880  0.9670E-01  0.0000E+00  0.1818E+00  0.1515E+00
    -34.567  0.0000E+00  0.0000E+00  0.1818E+00  0.1515E+00
    -34.253  0.0000E+00  0.0000E+00  0.1818E+00  0.1515E+00
    -33.940  0.0000E+00  0.0000E+00  0.1818E+00  0.1515E+00
    -33.627  0.0000E+00  0.0000E+00  0.1818E+00  0.1515E+00
    -33.313  0.0000E+00  0.0000E+00  0.1818E+00  0.1515E+00
    -33.000  0.0000E+00  0.0000E+00  0.1818E+00  0.1515E+00
    -32.686  0.0000E+00  0.0000E+00  0.1818E+00  0.1515E+00
    -32.373  0.0000E+00  0.0000E+00  0.1818E+00  0.1515E+00
    -32.060  0.0000E+00  0.0000E+00  0.1818E+00  0.1515E+00
    -31.746  0.0000E+00  0.1698E+02  0.1818E+00  0.1754E+00
    -31.433  0.0000E+00  0.3868E-02  0.1818E+00  0.1818E+00
    -31.120  0.0000E+00  0.0000E+00  0.1818E+00  0.1818E+00
    -30.806  0.0000E+00  0.0000E+00  0.1818E+00  0.1818E+00
    -30.493  0.0000E+00  0.0000E+00  0.1818E+00  0.1818E+00
    -30.179  0.0000E+00  0.0000E+00  0.1818E+00  0.1818E+00
    -29.866  0.0000E+00  0.0000E+00  0.1818E+00  0.1818E+00
    -29.553  0.0000E+00  0.0000E+00  0.1818E+00  0.1818E+00
    -29.239  0.0000E+00  0.0000E+00  0.1818E+00  0.1818E+00
    -28.926  0.0000E+00  0.0000E+00  0.1818E+00  0.1818E+00
    -28.613  0.0000E+00  0.0000E+00  0.1818E+00  0.1818E+00
    -28.299  0.0000E+00  0.0000E+00  0.1818E+00  0.1818E+00
    -27.986  0.0000E+00  0.0000E+00  0.1818E+00  0.1818E+00
    -27.672  0.0000E+00  0.0000E+00  0.1818E+00  0.1818E+00
    -27.359  0.0000E+00  0.0000E+00  0.1818E+00  0.1818E+00
    -27.046  0.0000E+00  0.0000E+00  0.1818E+00  0.1818E+00
    -26.732  0.0000E+00  0.0000E+00  0.1818E+00  0.1818E+00
    -26.419  0.0000E+00  0.0000E+00  0.1818E+00  0.1818E+00
    -26.106  0.0000E+00  0.0000E+00  0.1818E+00  0.1818E+00
    -25.792  0.0000E+00  0.0000E+00  0.1818E+00  0.1818E+00
    -25.479  0.0000E+00  0.0000E+00  0.1818E+00  0.1818E+00
    -25.165  0.0000E+00  0.0000E+00  0.1818E+00  0.1818E+00
    -24.852  0.0000E+00  0.0000E+00  0.1818E+00  0.1818E+00
    -24.539  0.0000E+00  0.0000E+00  0.1818E+00  0.1818E+00
    -24.225  0.0000E+00  0.0000E+00  0.1818E+00  0.1818E+00
    -23.912  0.0000E+00  0.0000E+00  0.1818E+00  0.1818E+00
    -23.599  0.0000E+00  0.0000E+00  0.1818E+00  0.1818E+00
    -23.285  0.0000E+00  0.0000E+00  0.1818E+00  0.1818E+00
    -22.972  0.0000E+00  0.0000E+00  0.1818E+00  0.1818E+00
    -22.658  0.0000E+00  0.0000E+00  0.1818E+00  0.1818E+00
    -22.345  0.0000E+00  0.0000E+00  0.1818E+00  0.1818E+00
    -22.032  0.0000E+00  0.0000E+00  0.1818E+00  0.1818E+00
    -21.718  0.0000E+00  0.0000E+00  0.1818E+00  0.1818E+00
    -21.405  0.0000E+00  0.0000E+00  0.1818E+00  0.1818E+00
    -21.092  0.0000E+00  0.0000E+00  0.1818E+00  0.1818E+00
    -20.778  0.0000E+00  0.0000E+00  0.1818E+00  0.1818E+00
    -20.465  0.0000E+00  0.0000E+00  0.1818E+00  0.1818E+00
    -20.151  0.0000E+00  0.0000E+00  0.1818E+00  0.1818E+00
    -19.838  0.0000E+00  0.0000E+00  0.1818E+00  0.1818E+00
    -19.525  0.0000E+00  0.0000E+00  0.1818E+00  0.1818E+00
    -19.211  0.0000E+00  0.0000E+00  0.1818E+00  0.1818E+00
    -18.898  0.0000E+00  0.0000E+00  0.1818E+00  0.1818E+00
    -18.585  0.0000E+00  0.0000E+00  0.1818E+00  0.1818E+00
    -18.271  0.0000E+00  0.0000E+00  0.1818E+00  0.1818E+00
    -17.958  0.0000E+00  0.0000E+00  0.1818E+00  0.1818E+00
    -17.644  0.0000E+00  0.0000E+00  0.1818E+00  0.1818E+00
    -17.331  0.0000E+00  0.0000E+00  0.1818E+00  0.1818E+00
    -17.018  0.0000E+00  0.0000E+00  0.1818E+00  0.1818E+00
    -16.704  0.0000E+00  0.0000E+00  0.1818E+00  0.1818E+00
    -16.391  0.0000E+00  0.0000E+00  0.1818E+00  0.1818E+00
    -16.078  0.0000E+00  0.0000E+00  0.1818E+00  0.1818E+00
    -15.764  0.0000E+00  0.0000E+00  0.1818E+00  0.1818E+00
    -15.451  0.0000E+00  0.0000E+00  0.1818E+00  0.1818E+00
    -15.137  0.0000E+00  0.0000E+00  0.1818E+00  0.1818E+00
    -14.824  0.0000E+00  0.0000E+00  0.1818E+00  0.1818E+00
    -14.511  0.0000E+00  0.0000E+00  0.1818E+00  0.1818E+00
    -14.197  0.0000E+00  0.0000E+00  0.1818E+00  0.1818E+00
    -13.884  0.0000E+00  0.0000E+00  0.1818E+00  0.1818E+00
    -13.571  0.0000E+00  0.0000E+00  0.1818E+00  0.1818E+00
    -13.257  0.0000E+00  0.0000E+00  0.1818E+00  0.1818E+00
    -12.944  0.0000E+00  0.0000E+00  0.1818E+00  0.1818E+00
    -12.630  0.1934E+00  0.3055E+01  0.2424E+00  0.2493E+00
    -12.317  0.1289E+00  0.1019E+00  0.2828E+00  0.2828E+00
    -12.004  0.0000E+00  0.0000E+00  0.2828E+00  0.2828E+00
    -11.690  0.0000E+00  0.0000E+00  0.2828E+00  0.2828E+00
    -11.377  0.0000E+00  0.0000E+00  0.2828E+00  0.2828E+00
    -11.064  0.0000E+00  0.0000E+00  0.2828E+00  0.2828E+00
    -10.750  0.0000E+00  0.0000E+00  0.2828E+00  0.2828E+00
    -10.437  0.0000E+00  0.0000E+00  0.2828E+00  0.2828E+00
    -10.123  0.0000E+00  0.0000E+00  0.2828E+00  0.2828E+00
     -9.810  0.0000E+00  0.0000E+00  0.2828E+00  0.2828E+00
     -9.497  0.0000E+00  0.0000E+00  0.2828E+00  0.2828E+00
     -9.183  0.0000E+00  0.0000E+00  0.2828E+00  0.2828E+00
     -8.870  0.0000E+00  0.0000E+00  0.2828E+00  0.2828E+00
     -8.557  0.0000E+00  0.0000E+00  0.2828E+00  0.2828E+00
     -8.243  0.0000E+00  0.0000E+00  0.2828E+00  0.2828E+00
     -7.930  0.0000E+00  0.0000E+00  0.2828E+00  0.2828E+00
     -7.616  0.0000E+00  0.0000E+00  0.2828E+00  0.2828E+00
     -7.303  0.0000E+00  0.0000E+00  0.2828E+00  0.2828E+00
     -6.990  0.0000E+00  0.0000E+00  0.2828E+00  0.2828E+00
     -6.676  0.0000E+00  0.0000E+00  0.2828E+00  0.2828E+00
     -6.363  0.0000E+00  0.0000E+00  0.2828E+00  0.2828E+00
     -6.050  0.0000E+00  0.0000E+00  0.2828E+00  0.2828E+00
     -5.736  0.0000E+00  0.0000E+00  0.2828E+00  0.2828E+00
     -5.423  0.0000E+00  0.0000E+00  0.2828E+00  0.2828E+00
     -5.109  0.0000E+00  0.0000E+00  0.2828E+00  0.2828E+00
     -4.796  0.0000E+00  0.0000E+00  0.2828E+00  0.2828E+00
     -4.483  0.0000E+00  0.0000E+00  0.2828E+00  0.2828E+00
     -4.169  0.0000E+00  0.0000E+00  0.2828E+00  0.2828E+00
     -3.856  0.0000E+00  0.0000E+00  0.2828E+00  0.2828E+00
     -3.543  0.0000E+00  0.0000E+00  0.2828E+00  0.2828E+00
     -3.229  0.0000E+00  0.0000E+00  0.2828E+00  0.2828E+00
     -2.916  0.0000E+00  0.0000E+00  0.2828E+00  0.2828E+00
     -2.602  0.0000E+00  0.0000E+00  0.2828E+00  0.2828E+00
     -2.289  0.0000E+00  0.0000E+00  0.2828E+00  0.2828E+00
     -1.976  0.1101E-02  0.9097E-03  0.2829E+00  0.2829E+00
     -1.662  0.2928E-02  0.2880E-02  0.2836E+00  0.2836E+00
     -1.349  0.3811E-02  0.3854E-02  0.2847E+00  0.2846E+00
     -1.036  0.5193E-02  0.5209E-02  0.2860E+00  0.2859E+00
     -0.722  0.6541E-02  0.6644E-02  0.2878E+00  0.2878E+00
     -0.409  0.1101E-01  0.1137E-01  0.2904E+00  0.2904E+00
     -0.095  0.1104E-01  0.1121E-01  0.2940E+00  0.2941E+00
      0.218  0.1271E-01  0.1261E-01  0.2979E+00  0.2980E+00
      0.531  0.4457E-02  0.3368E-02  0.3030E+00  0.3030E+00
      0.845  0.0000E+00  0.0000E+00  0.3030E+00  0.3030E+00
      1.158  0.0000E+00  0.0000E+00  0.3030E+00  0.3030E+00
      1.471  0.0000E+00  0.0000E+00  0.3030E+00  0.3030E+00
      1.785  0.0000E+00  0.0000E+00  0.3030E+00  0.3030E+00
      2.098  0.8955E-04  0.0000E+00  0.3030E+00  0.3030E+00
      2.412  0.9160E-02  0.1135E-02  0.3037E+00  0.3031E+00
      2.725  0.2292E-01  0.1944E-01  0.3082E+00  0.3064E+00
      3.038  0.1992E-01  0.1997E-01  0.3160E+00  0.3143E+00
      3.352  0.7358E-02  0.9686E-02  0.3194E+00  0.3187E+00
      3.665  0.1470E-01  0.6003E-02  0.3218E+00  0.3208E+00
      3.978  0.2164E-01  0.2136E-01  0.3278E+00  0.3260E+00
      4.292  0.2209E-01  0.2125E-01  0.3342E+00  0.3323E+00
      4.605  0.1137E+00  0.5344E-01  0.3473E+00  0.3428E+00
      4.919  0.6517E-01  0.5664E-01  0.3641E+00  0.3633E+00
      5.232  0.1837E+00  0.1401E+00  0.3970E+00  0.3901E+00
      5.545  0.3003E+00  0.1938E+00  0.4404E+00  0.4232E+00
      5.859  0.3063E+00  0.2845E+00  0.4956E+00  0.4888E+00
      6.172  0.6225E-01  0.8507E-01  0.5199E+00  0.5162E+00
      6.485  0.9656E-02  0.1014E-01  0.5246E+00  0.5226E+00
      6.799  0.6768E-01  0.4883E-01  0.5382E+00  0.5321E+00
      7.112  0.3799E-01  0.3558E-01  0.5520E+00  0.5436E+00
      7.426  0.4704E-01  0.4295E-01  0.5649E+00  0.5534E+00
      7.739  0.4741E-01  0.3610E-01  0.5743E+00  0.5652E+00
      8.052  0.9708E-01  0.1315E+00  0.6057E+00  0.5785E+00
      8.366  0.9238E-01  0.3547E-01  0.6251E+00  0.5915E+00
      8.679  0.2688E-01  0.2988E-01  0.6365E+00  0.6010E+00
      8.992  0.1998E-01  0.2051E-01  0.6430E+00  0.6085E+00
      9.306  0.1940E-01  0.1319E-01  0.6490E+00  0.6132E+00
      9.619  0.1493E-01  0.2483E-01  0.6546E+00  0.6183E+00
      9.933  0.1170E-01  0.1123E-01  0.6587E+00  0.6248E+00
     10.246  0.8520E-02  0.1664E-01  0.6619E+00  0.6292E+00
     10.559  0.7341E-02  0.5122E-01  0.6641E+00  0.6355E+00
     10.873  0.1883E-01  0.4569E-01  0.6682E+00  0.6505E+00
     11.186  0.2422E-01  0.3406E-01  0.6747E+00  0.6595E+00
     11.499  0.1463E-01  0.2122E-01  0.6808E+00  0.6664E+00
     11.813  0.8437E-02  0.2951E-01  0.6842E+00  0.6749E+00
     12.126  0.1107E-01  0.1805E-01  0.6871E+00  0.6823E+00
     12.440  0.1252E-01  0.7886E-02  0.6909E+00  0.6852E+00
     12.753  0.1739E-01  0.8950E-02  0.6950E+00  0.6879E+00
     13.066  0.1996E-01  0.1726E-01  0.7006E+00  0.6923E+00
     13.380  0.1991E-01  0.2418E-01  0.7065E+00  0.6992E+00
     13.693  0.2360E-01  0.1915E-01  0.7132E+00  0.7053E+00
     14.006  0.1965E-01  0.2166E-01  0.7202E+00  0.7123E+00
     14.320  0.1543E-01  0.2034E-01  0.7251E+00  0.7195E+00
     14.633  0.1781E-01  0.1358E-01  0.7301E+00  0.7243E+00
     14.947  0.2289E-01  0.1450E-01  0.7364E+00  0.7287E+00
     15.260  0.2220E-01  0.1448E-01  0.7441E+00  0.7332E+00
     15.573  0.1582E-01  0.1350E-01  0.7496E+00  0.7376E+00
     15.887  0.1555E-01  0.1363E-01  0.7544E+00  0.7418E+00
     16.200  0.1760E-01  0.1451E-01  0.7596E+00  0.7461E+00
     16.513  0.3164E-01  0.1851E-01  0.7659E+00  0.7514E+00
     16.827  0.1769E-01  0.2369E-01  0.7723E+00  0.7580E+00
     17.140  0.1778E-01  0.1703E-01  0.7777E+00  0.7642E+00
     17.454  0.2343E-01  0.1791E-01  0.7848E+00  0.7693E+00
     17.767  0.1468E-01  0.2722E-01  0.7909E+00  0.7775E+00
     18.080  0.1765E-01  0.1415E-01  0.7958E+00  0.7824E+00
     18.394  0.1454E-01  0.2002E-01  0.8012E+00  0.7875E+00
     18.707  0.1345E-01  0.1278E-01  0.8054E+00  0.7927E+00
     19.020  0.1154E-01  0.1630E-01  0.8096E+00  0.7972E+00
     19.334  0.1268E-01  0.1450E-01  0.8131E+00  0.8018E+00
     19.647  0.1185E-01  0.3415E-01  0.8170E+00  0.8076E+00
     19.961  0.1155E-01  0.2164E-01  0.8208E+00  0.8167E+00
     20.274  0.1221E-01  0.1397E-01  0.8244E+00  0.8214E+00
     20.587  0.2010E-01  0.1533E-01  0.8294E+00  0.8259E+00
     20.901  0.2155E-01  0.2897E-01  0.8374E+00  0.8334E+00
     21.214  0.2559E-01  0.2569E-01  0.8449E+00  0.8406E+00
     21.527  0.3186E-01  0.2867E-01  0.8534E+00  0.8492E+00
     21.841  0.2974E-01  0.3244E-01  0.8633E+00  0.8591E+00
     22.154  0.2198E-01  0.2854E-01  0.8717E+00  0.8677E+00
     22.468  0.2159E-01  0.2556E-01  0.8787E+00  0.8752E+00
     22.781  0.1443E-01  0.1596E-01  0.8839E+00  0.8816E+00
     23.094  0.8366E-02  0.1218E-01  0.8876E+00  0.8860E+00
     23.408  0.7322E-03  0.1970E-02  0.8888E+00  0.8886E+00
     23.721  0.2948E-06  0.1230E-03  0.8889E+00  0.8889E+00
     24.034  0.0000E+00  0.0000E+00  0.8889E+00  0.8889E+00
     24.348  0.0000E+00  0.0000E+00  0.8889E+00  0.8889E+00
     24.661  0.0000E+00  0.0000E+00  0.8889E+00  0.8889E+00
     24.975  0.0000E+00  0.0000E+00  0.8889E+00  0.8889E+00
     25.288  0.0000E+00  0.0000E+00  0.8889E+00  0.8889E+00
     25.601  0.0000E+00  0.0000E+00  0.8889E+00  0.8889E+00
     25.915  0.0000E+00  0.0000E+00  0.8889E+00  0.8889E+00
     26.228  0.0000E+00  0.0000E+00  0.8889E+00  0.8889E+00
     26.541  0.0000E+00  0.0000E+00  0.8889E+00  0.8889E+00
     26.855  0.0000E+00  0.0000E+00  0.8889E+00  0.8889E+00
     27.168  0.0000E+00  0.0000E+00  0.8889E+00  0.8889E+00
     27.482  0.0000E+00  0.0000E+00  0.8889E+00  0.8889E+00
     27.795  0.0000E+00  0.0000E+00  0.8889E+00  0.8889E+00
     28.108  0.0000E+00  0.0000E+00  0.8889E+00  0.8889E+00
     28.10834260    -65.90412379  301      9.01868420      1.00000000
    -65.904  0.0000E+00  0.0000E+00  0.0000E+00  0.0000E+00  0.0000E+00  0.0000E+00  0.0000E+00  0.0000E+00  0.0000E+00  0.0000E+00  0.0000E+00  0.0000E+00  0.0000E+00  0.0000E+00  0.0000E+00  0.0000E+00  0.0000E+00  0.0000E+00
    -65.591  0.0000E+00  0.0000E+00  0.0000E+00  0.0000E+00  0.0000E+00  0.0000E+00  0.0000E+00  0.0000E+00  0.0000E+00  0.0000E+00  0.0000E+00  0.0000E+00  0.0000E+00  0.0000E+00  0.0000E+00  0.0000E+00  0.0000E+00  0.0000E+00
    -65.277  0.0000E+00  0.0000E+00  0.0000E+00  0.0000E+00  0.0000E+00  0.0000E+00  0.0000E+00  0.0000E+00  0.0000E+00  0.0000E+00  0.0000E+00  0.0000E+00  0.0000E+00  0.0000E+00  0.0000E+00  0.0000E+00  0.0000E+00  0.0000E+00
    -64.964  0.0000E+00  0.0000E+00  0.0000E+00  0.0000E+00  0.0000E+00  0.0000E+00  0.0000E+00  0.0000E+00  0.0000E+00  0.0000E+00  0.0000E+00  0.0000E+00  0.0000E+00  0.0000E+00  0.0000E+00  0.0000E+00  0.0000E+00  0.0000E+00
    -64.651  0.0000E+00  0.0000E+00  0.0000E+00  0.0000E+00  0.0000E+00  0.0000E+00  0.0000E+00  0.0000E+00  0.0000E+00  0.0000E+00  0.0000E+00  0.0000E+00  0.0000E+00  0.0000E+00  0.0000E+00  0.0000E+00  0.0000E+00  0.0000E+00
    -64.337  0.0000E+00  0.0000E+00  0.0000E+00  0.0000E+00  0.0000E+00  0.0000E+00  0.0000E+00  0.0000E+00  0.0000E+00  0.0000E+00  0.0000E+00  0.0000E+00  0.0000E+00  0.0000E+00  0.0000E+00  0.0000E+00  0.0000E+00  0.0000E+00
    -64.024  0.0000E+00  0.0000E+00  0.0000E+00  0.0000E+00  0.0000E+00  0.0000E+00  0.0000E+00  0.0000E+00  0.0000E+00  0.0000E+00  0.0000E+00  0.0000E+00  0.0000E+00  0.0000E+00  0.0000E+00  0.0000E+00  0.0000E+00  0.0000E+00
    -63.710  0.0000E+00  0.0000E+00  0.0000E+00  0.0000E+00  0.0000E+00  0.0000E+00  0.0000E+00  0.0000E+00  0.0000E+00  0.0000E+00  0.0000E+00  0.0000E+00  0.0000E+00  0.0000E+00  0.0000E+00  0.0000E+00  0.0000E+00  0.0000E+00
    -63.397  0.0000E+00  0.0000E+00  0.0000E+00  0.0000E+00  0.0000E+00  0.0000E+00  0.0000E+00  0.0000E+00  0.0000E+00  0.0000E+00  0.0000E+00  0.0000E+00  0.0000E+00  0.0000E+00  0.0000E+00  0.0000E+00  0.0000E+00  0.0000E+00
    -63.084  0.0000E+00  0.0000E+00  0.0000E+00  0.0000E+00  0.0000E+00  0.0000E+00  0.0000E+00  0.0000E+00  0.0000E+00  0.0000E+00  0.0000E+00  0.0000E+00  0.0000E+00  0.0000E+00  0.0000E+00  0.0000E+00  0.0000E+00  0.0000E+00
    -62.770  0.0000E+00  0.0000E+00  0.0000E+00  0.0000E+00  0.0000E+00  0.0000E+00  0.0000E+00  0.0000E+00  0.0000E+00  0.0000E+00  0.0000E+00  0.0000E+00  0.0000E+00  0.0000E+00  0.0000E+00  0.0000E+00  0.0000E+00  0.0000E+00
    -62.457  0.0000E+00  0.0000E+00  0.0000E+00  0.0000E+00  0.0000E+00  0.0000E+00  0.0000E+00  0.0000E+00  0.0000E+00  0.0000E+00  0.0000E+00  0.0000E+00  0.0000E+00  0.0000E+00  0.0000E+00  0.0000E+00  0.0000E+00  0.0000E+00
    -62.144  0.0000E+00  0.0000E+00  0.0000E+00  0.0000E+00  0.0000E+00  0.0000E+00  0.0000E+00  0.0000E+00  0.0000E+00  0.0000E+00  0.0000E+00  0.0000E+00  0.0000E+00  0.0000E+00  0.0000E+00  0.0000E+00  0.0000E+00  0.0000E+00
    -61.830  0.0000E+00  0.0000E+00  0.0000E+00  0.0000E+00  0.0000E+00  0.0000E+00  0.0000E+00  0.0000E+00  0.0000E+00  0.0000E+00  0.0000E+00  0.0000E+00  0.0000E+00  0.0000E+00  0.0000E+00  0.0000E+00  0.0000E+00  0.0000E+00
    -61.517  0.1024E-04  0.9630E-05  0.6570E-05  0.5539E-05  0.6574E-05  0.5542E-05  0.6694E-05  0.5629E-05  0.4452E-05  0.4217E-05  0.8383E-05  0.7936E-05  0.7650E-05  0.7241E-05  0.5513E-05  0.5221E-05  0.9166E-05  0.8674E-05
    -61.204  0.8711E-09  0.2103E-08  0.3441E-07  0.2776E-07  0.3355E-07  0.2714E-07  0.7099E-08  0.8143E-08  0.1402E-06  0.1277E-06  0.1542E-07  0.1451E-07  0.2712E-07  0.2509E-07  0.1271E-06  0.1160E-06  0.2025E-07  0.1919E-07
    -60.890  0.0000E+00  0.0000E+00  0.0000E+00  0.0000E+00  0.0000E+00  0.0000E+00  0.0000E+00  0.0000E+00  0.0000E+00  0.0000E+00  0.0000E+00  0.0000E+00  0.0000E+00  0.0000E+00  0.0000E+00  0.0000E+00  0.0000E+00  0.0000E+00
    -60.577  0.0000E+00  0.0000E+00  0.0000E+00  0.0000E+00  0.0000E+00  0.0000E+00  0.0000E+00  0.0000E+00  0.0000E+00  0.0000E+00  0.0000E+00  0.0000E+00  0.0000E+00  0.0000E+00  0.0000E+00  0.0000E+00  0.0000E+00  0.0000E+00
    -60.263  0.0000E+00  0.0000E+00  0.0000E+00  0.0000E+00  0.0000E+00  0.0000E+00  0.0000E+00  0.0000E+00  0.0000E+00  0.0000E+00  0.0000E+00  0.0000E+00  0.0000E+00  0.0000E+00  0.0000E+00  0.0000E+00  0.0000E+00  0.0000E+00
    -59.950  0.0000E+00  0.0000E+00  0.0000E+00  0.0000E+00  0.0000E+00  0.0000E+00  0.0000E+00  0.0000E+00  0.0000E+00  0.0000E+00  0.0000E+00  0.0000E+00  0.0000E+00  0.0000E+00  0.0000E+00  0.0000E+00  0.0000E+00  0.0000E+00
    -59.637  0.0000E+00  0.0000E+00  0.0000E+00  0.0000E+00  0.0000E+00  0.0000E+00  0.0000E+00  0.0000E+00  0.0000E+00  0.0000E+00  0.0000E+00  0.0000E+00  0.0000E+00  0.0000E+00  0.0000E+00  0.0000E+00  0.0000E+00  0.0000E+00
    -59.323  0.0000E+00  0.0000E+00  0.0000E+00  0.0000E+00  0.0000E+00  0.0000E+00  0.0000E+00  0.0000E+00  0.0000E+00  0.0000E+00  0.0000E+00  0.0000E+00  0.0000E+00  0.0000E+00  0.0000E+00  0.0000E+00  0.0000E+00  0.0000E+00
    -59.010  0.0000E+00  0.0000E+00  0.0000E+00  0.0000E+00  0.0000E+00  0.0000E+00  0.0000E+00  0.0000E+00  0.0000E+00  0.0000E+00  0.0000E+00  0.0000E+00  0.0000E+00  0.0000E+00  0.0000E+00  0.0000E+00  0.0000E+00  0.0000E+00
    -58.697  0.0000E+00  0.0000E+00  0.0000E+00  0.0000E+00  0.0000E+00  0.0000E+00  0.0000E+00  0.0000E+00  0.0000E+00  0.0000E+00  0.0000E+00  0.0000E+00  0.0000E+00  0.0000E+00  0.0000E+00  0.0000E+00  0.0000E+00  0.0000E+00
    -58.383  0.0000E+00  0.0000E+00  0.0000E+00  0.0000E+00  0.0000E+00  0.0000E+00  0.0000E+00  0.0000E+00  0.0000E+00  0.0000E+00  0.0000E+00  0.0000E+00  0.0000E+00  0.0000E+00  0.0000E+00  0.0000E+00  0.0000E+00  0.0000E+00
    -58.070  0.0000E+00  0.0000E+00  0.0000E+00  0.0000E+00  0.0000E+00  0.0000E+00  0.0000E+00  0.0000E+00  0.0000E+00  0.0000E+00  0.0000E+00  0.0000E+00  0.0000E+00  0.0000E+00  0.0000E+00  0.0000E+00  0.0000E+00  0.0000E+00
    -57.756  0.0000E+00  0.0000E+00  0.0000E+00  0.0000E+00  0.0000E+00  0.0000E+00  0.0000E+00  0.0000E+00  0.0000E+00  0.0000E+00  0.0000E+00  0.0000E+00  0.0000E+00  0.0000E+00  0.0000E+00  0.0000E+00  0.0000E+00  0.0000E+00
    -57.443  0.0000E+00  0.0000E+00  0.0000E+00  0.0000E+00  0.0000E+00  0.0000E+00  0.0000E+00  0.0000E+00  0.0000E+00  0.0000E+00  0.0000E+00  0.0000E+00  0.0000E+00  0.0000E+00  0.0000E+00  0.0000E+00  0.0000E+00  0.0000E+00
    -57.130  0.0000E+00  0.0000E+00  0.0000E+00  0.0000E+00  0.0000E+00  0.0000E+00  0.0000E+00  0.0000E+00  0.0000E+00  0.0000E+00  0.0000E+00  0.0000E+00  0.0000E+00  0.0000E+00  0.0000E+00  0.0000E+00  0.0000E+00  0.0000E+00
    -56.816  0.0000E+00  0.0000E+00  0.0000E+00  0.0000E+00  0.0000E+00  0.0000E+00  0.0000E+00  0.0000E+00  0.0000E+00  0.0000E+00  0.0000E+00  0.0000E+00  0.0000E+00  0.0000E+00  0.0000E+00  0.0000E+00  0.0000E+00  0.0000E+00
    -56.503  0.0000E+00  0.0000E+00  0.0000E+00  0.0000E+00  0.0000E+00  0.0000E+00  0.0000E+00  0.0000E+00  0.0000E+00  0.0000E+00  0.0000E+00  0.0000E+00  0.0000E+00  0.0000E+00  0.0000E+00  0.0000E+00  0.0000E+00  0.0000E+00
    -56.190  0.0000E+00  0.0000E+00  0.0000E+00  0.0000E+00  0.0000E+00  0.0000E+00  0.0000E+00  0.0000E+00  0.0000E+00  0.0000E+00  0.0000E+00  0.0000E+00  0.0000E+00  0.0000E+00  0.0000E+00  0.0000E+00  0.0000E+00  0.0000E+00
    -55.876  0.0000E+00  0.0000E+00  0.0000E+00  0.0000E+00  0.0000E+00  0.0000E+00  0.0000E+00  0.0000E+00  0.0000E+00  0.0000E+00  0.0000E+00  0.0000E+00  0.0000E+00  0.0000E+00  0.0000E+00  0.0000E+00  0.0000E+00  0.0000E+00
    -55.563  0.0000E+00  0.0000E+00  0.0000E+00  0.0000E+00  0.0000E+00  0.0000E+00  0.0000E+00  0.0000E+00  0.0000E+00  0.0000E+00  0.0000E+00  0.0000E+00  0.0000E+00  0.0000E+00  0.0000E+00  0.0000E+00  0.0000E+00  0.0000E+00
    -55.249  0.0000E+00  0.0000E+00  0.0000E+00  0.0000E+00  0.0000E+00  0.0000E+00  0.0000E+00  0.0000E+00  0.0000E+00  0.0000E+00  0.0000E+00  0.0000E+00  0.0000E+00  0.0000E+00  0.0000E+00  0.0000E+00  0.0000E+00  0.0000E+00
    -54.936  0.0000E+00  0.0000E+00  0.0000E+00  0.0000E+00  0.0000E+00  0.0000E+00  0.0000E+00  0.0000E+00  0.0000E+00  0.0000E+00  0.0000E+00  0.0000E+00  0.0000E+00  0.0000E+00  0.0000E+00  0.0000E+00  0.0000E+00  0.0000E+00
    -54.623  0.0000E+00  0.0000E+00  0.0000E+00  0.0000E+00  0.0000E+00  0.0000E+00  0.0000E+00  0.0000E+00  0.0000E+00  0.0000E+00  0.0000E+00  0.0000E+00  0.0000E+00  0.0000E+00  0.0000E+00  0.0000E+00  0.0000E+00  0.0000E+00
    -54.309  0.0000E+00  0.0000E+00  0.0000E+00  0.0000E+00  0.0000E+00  0.0000E+00  0.0000E+00  0.0000E+00  0.0000E+00  0.0000E+00  0.0000E+00  0.0000E+00  0.0000E+00  0.0000E+00  0.0000E+00  0.0000E+00  0.0000E+00  0.0000E+00
    -53.996  0.0000E+00  0.0000E+00  0.0000E+00  0.0000E+00  0.0000E+00  0.0000E+00  0.0000E+00  0.0000E+00  0.0000E+00  0.0000E+00  0.0000E+00  0.0000E+00  0.0000E+00  0.0000E+00  0.0000E+00  0.0000E+00  0.0000E+00  0.0000E+00
    -53.683  0.7490E-10  0.7177E-10  0.1063E-08  0.1047E-08  0.1079E-08  0.1064E-08  0.1560E-08  0.1578E-08  0.3512E-09  0.3600E-09  0.1913E-09  0.1992E-09  0.2253E-09  0.2330E-09  0.3269E-09  0.3359E-09  0.2202E-09  0.2282E-09
    -53.369  0.0000E+00  0.0000E+00  0.0000E+00  0.0000E+00  0.0000E+00  0.0000E+00  0.0000E+00  0.0000E+00  0.0000E+00  0.0000E+00  0.0000E+00  0.0000E+00  0.0000E+00  0.0000E+00  0.0000E+00  0.0000E+00  0.0000E+00  0.0000E+00
    -53.056  0.0000E+00  0.0000E+00  0.0000E+00  0.0000E+00  0.0000E+00  0.0000E+00  0.0000E+00  0.0000E+00  0.0000E+00  0.0000E+00  0.0000E+00  0.0000E+00  0.0000E+00  0.0000E+00  0.0000E+00  0.0000E+00  0.0000E+00  0.0000E+00
    -52.742  0.0000E+00  0.0000E+00  0.0000E+00  0.0000E+00  0.0000E+00  0.0000E+00  0.0000E+00  0.0000E+00  0.0000E+00  0.0000E+00  0.0000E+00  0.0000E+00  0.0000E+00  0.0000E+00  0.0000E+00  0.0000E+00  0.0000E+00  0.0000E+00
    -52.429  0.0000E+00  0.0000E+00  0.0000E+00  0.0000E+00  0.0000E+00  0.0000E+00  0.0000E+00  0.0000E+00  0.0000E+00  0.0000E+00  0.0000E+00  0.0000E+00  0.0000E+00  0.0000E+00  0.0000E+00  0.0000E+00  0.0000E+00  0.0000E+00
    -52.116  0.0000E+00  0.0000E+00  0.0000E+00  0.0000E+00  0.0000E+00  0.0000E+00  0.0000E+00  0.0000E+00  0.0000E+00  0.0000E+00  0.0000E+00  0.0000E+00  0.0000E+00  0.0000E+00  0.0000E+00  0.0000E+00  0.0000E+00  0.0000E+00
    -51.802  0.0000E+00  0.0000E+00  0.0000E+00  0.0000E+00  0.0000E+00  0.0000E+00  0.0000E+00  0.0000E+00  0.0000E+00  0.0000E+00  0.0000E+00  0.0000E+00  0.0000E+00  0.0000E+00  0.0000E+00  0.0000E+00  0.0000E+00  0.0000E+00
    -51.489  0.0000E+00  0.0000E+00  0.0000E+00  0.0000E+00  0.0000E+00  0.0000E+00  0.0000E+00  0.0000E+00  0.0000E+00  0.0000E+00  0.0000E+00  0.0000E+00  0.0000E+00  0.0000E+00  0.0000E+00  0.0000E+00  0.0000E+00  0.0000E+00
    -51.176  0.0000E+00  0.0000E+00  0.0000E+00  0.0000E+00  0.0000E+00  0.0000E+00  0.0000E+00  0.0000E+00  0.0000E+00  0.0000E+00  0.0000E+00  0.0000E+00  0.0000E+00  0.0000E+00  0.0000E+00  0.0000E+00  0.0000E+00  0.0000E+00
    -50.862  0.0000E+00  0.0000E+00  0.0000E+00  0.0000E+00  0.0000E+00  0.0000E+00  0.0000E+00  0.0000E+00  0.0000E+00  0.0000E+00  0.0000E+00  0.0000E+00  0.0000E+00  0.0000E+00  0.0000E+00  0.0000E+00  0.0000E+00  0.0000E+00
    -50.549  0.0000E+00  0.0000E+00  0.0000E+00  0.0000E+00  0.0000E+00  0.0000E+00  0.0000E+00  0.0000E+00  0.0000E+00  0.0000E+00  0.0000E+00  0.0000E+00  0.0000E+00  0.0000E+00  0.0000E+00  0.0000E+00  0.0000E+00  0.0000E+00
    -50.235  0.0000E+00  0.0000E+00  0.0000E+00  0.0000E+00  0.0000E+00  0.0000E+00  0.0000E+00  0.0000E+00  0.0000E+00  0.0000E+00  0.0000E+00  0.0000E+00  0.0000E+00  0.0000E+00  0.0000E+00  0.0000E+00  0.0000E+00  0.0000E+00