    8    8   99    2
  0.1459184E+02  0.7517879E-09  0.7517879E-09  0.7517879E-09  0.5000000E-15
   1.0000000000000000E-004
  CAR 
 unknown system                          
    124     19     88
 
  0.1262379E-14  0.1262379E-14  0.1262379E-14  0.8000000E-02
      1        -61.630641      -61.564186   1.000000   1.000000
      2        -61.630638      -61.564183   1.000000   1.000000
      3        -61.628023      -61.561537   1.000000   1.000000
      4        -61.628021      -61.561534   1.000000   1.000000
      5        -61.590495      -61.536422   1.000000   1.000000
      6        -61.588535      -61.534498   1.000000   1.000000
      7        -61.557856      -61.525170   1.000000   1.000000
      8        -61.555423      -61.522670   1.000000   1.000000
      9        -61.470092      -61.468320   1.000000   1.000000
     10        -61.470090      -61.468317   1.000000   1.000000
     11        -61.466875      -61.465100   1.000000   1.000000
     12        -61.466873      -61.465097   1.000000   1.000000
     13        -53.922502      -53.951421   1.000000   1.000000
     14        -53.922500      -53.951419   1.000000   1.000000
     15        -53.893334      -53.937011   1.000000   1.000000
     16        -35.064221      -31.777354   1.000000   1.000000
     17        -35.007477      -31.745752   1.000000   1.000000
     18        -35.007476      -31.745751   1.000000   1.000000
     19        -12.663290      -12.679281   1.000000   1.000000
     20        -12.663199      -12.679167   1.000000   1.000000
     21        -12.656117      -12.672654   1.000000   1.000000
     22        -12.656117      -12.672653   1.000000   1.000000
     23        -12.647245      -12.663717   1.000000   1.000000
     24        -12.647244      -12.663717   1.000000   1.000000
     25        -12.618882      -12.628726   1.000000   1.000000
     26        -12.618880      -12.628724   1.000000   1.000000
     27        -12.614164      -12.624036   1.000000   1.000000
     28        -12.614162      -12.624035   1.000000   1.000000
     29         -2.202918       -2.172672   1.000000   1.000000
     30         -0.082695       -0.110567   1.000000   1.000000
     31          1.986615        2.127317   1.000000   1.000000
     32          4.477145        4.511396   1.000000   1.000000
     33          4.478298        4.511396   1.000000   1.000000
     34          4.478299        4.516261   1.000000   1.000000
     35          4.556144        4.701146   1.000000   1.000000
     36          4.556145        4.701146   1.000000   1.000000
     37          4.896430        4.942516   1.000000   1.000000
     38          4.896432        4.942518   1.000000   1.000000
     39          5.231548        5.371712   1.000000   1.000000
     40          5.336766        5.442022   1.000000   1.000000
     41          5.336767        5.442023   1.000000   1.000000
     42          5.406196        5.481887   1.000000   1.000000
     43          5.406197        5.481888   1.000000   1.000000
     44          5.666872        5.690491   1.000000   1.000000
     45          5.666873        5.690492   1.000000   1.000000
     46          5.729429        5.767502   1.000000   1.000000
     47          5.771809        5.869679   1.000000   1.000000
     48          5.826085        5.892564   1.000000   1.000000
     49          5.826086        5.892565   1.000000   1.000000
     50          6.270461        6.295647   1.000000   1.000000
     51          6.270463        6.295650   1.000000   1.000000
     52          7.111920        7.373526   1.000000   1.000000
     53          7.111920        7.373526   1.000000   1.000000
     54          7.141474        7.560461   1.000000   1.000000
     55          7.311616        7.775623   1.000000   1.000000
     56          7.311616        7.775625   1.000000   1.000000
     57          8.011340        8.822986   1.000000   1.000000
     58          8.011341        8.822987   1.000000   1.000000
     59          8.076743        9.583987   1.000000  -0.182819
     60          8.090286       10.107347   1.000000   0.000000
     61          8.090287       10.107348   1.000000   0.000000
     62         10.397534       10.397754  -0.366577   0.000000
     63         11.179983       11.250254   0.000000   0.000000
     64         11.179983       11.250254   0.000000   0.000000
     65         11.214868       11.314732   0.000000   0.000000
     66         11.290507       11.378818   0.000000   0.000000
     67         11.290507       11.779361   0.000000   0.000000
     68         11.324066       11.779361   0.000000   0.000000
     69         11.594465       12.151668   0.000000   0.000000
     70         11.594465       12.151668   0.000000   0.000000
     71         13.047280       13.021213   0.000000   0.000000
     72         13.258885       13.550271   0.000000   0.000000
     73         13.318311       14.114622   0.000000   0.000000
     74         13.318311       14.114622   0.000000   0.000000
     75         13.868116       14.885038   0.000000   0.000000
     76         14.682057       14.984943   0.000000   0.000000
     77         14.713503       15.038815   0.000000   0.000000
     78         14.713504       15.038816   0.000000   0.000000
     79         15.172929       18.975182   0.000000   0.000000
     80         18.936696       19.489657   0.000000   0.000000
     81         19.251842       19.489655   0.000000   0.000000
     82         19.251843       19.605109   0.000000   0.000000
     83         19.426345       19.605111   0.000000   0.000000
     84         19.426346       19.682345   0.000000   0.000000
     85         19.428637       19.732909   0.000000   0.000000
     86         19.428638       19.732909   0.000000   0.000000
     87         19.556093       19.756839   0.000000   0.000000
     88         20.792818       21.502659   0.000000   0.000000
 
  0.2000000E+00  0.1259646E-14  0.1282960E-14  0.4800000E-01
      1        -61.630460      -61.564002   1.000000   1.000000
      2        -61.630280      -61.563834   1.000000   1.000000
      3        -61.628559      -61.562088   1.000000   1.000000
      4        -61.628232      -61.561744   1.000000   1.000000
      5        -61.590730      -61.536655   1.000000   1.000000
      6        -61.588949      -61.534877   1.000000   1.000000
      7        -61.558067      -61.525374   1.000000   1.000000
      8        -61.555918      -61.523198   1.000000   1.000000
      9        -61.469922      -61.468150   1.000000   1.000000
     10        -61.469689      -61.467910   1.000000   1.000000
     11        -61.467410      -61.465632   1.000000   1.000000
     12        -61.467094      -61.465322   1.000000   1.000000
     13        -53.922602      -53.951523   1.000000   1.000000
     14        -53.922514      -53.951434   1.000000   1.000000
     15        -53.893702      -53.937372   1.000000   1.000000
     16        -35.064159      -31.777277   1.000000   1.000000
     17        -35.008002      -31.746473   1.000000   1.000000
     18        -35.007583      -31.745902   1.000000   1.000000
     19        -12.661291      -12.677361   1.000000   1.000000
     20        -12.660911      -12.676905   1.000000   1.000000
     21        -12.656135      -12.672548   1.000000   1.000000
     22        -12.652419      -12.668857   1.000000   1.000000
     23        -12.649136      -12.665654   1.000000   1.000000
     24        -12.644398      -12.660925   1.000000   1.000000
     25        -12.618849      -12.628701   1.000000   1.000000
     26        -12.617165      -12.626882   1.000000   1.000000
     27        -12.616319      -12.626224   1.000000   1.000000
     28        -12.613353      -12.623145   1.000000   1.000000
     29         -1.773049       -1.747960   1.000000   1.000000
     30          0.123538        0.102990   1.000000   1.000000
     31          2.458786        2.585331   1.000000   1.000000
     32          4.014379        4.119032   1.000000   1.000000
     33          4.098800        4.158462   1.000000   1.000000
     34          4.530948        4.580350   1.000000   1.000000
     35          4.556528        4.610639   1.000000   1.000000
     36          4.687417        4.795025   1.000000   1.000000
     37          4.948038        5.016803   1.000000   1.000000
     38          4.973384        5.049084   1.000000   1.000000
     39          5.003324        5.080793   1.000000   1.000000
     40          5.295378        5.394481   1.000000   1.000000
     41          5.380702        5.477944   1.000000   1.000000
     42          5.479895        5.526811   1.000000   1.000000
     43          5.535230        5.611249   1.000000   1.000000
     44          5.628645        5.699291   1.000000   1.000000
     45          5.659262        5.732287   1.000000   1.000000
     46          5.688565        5.793593   1.000000   1.000000
     47          5.791593        5.828853   1.000000   1.000000
     48          5.794710        5.847210   1.000000   1.000000
     49          5.846721        5.904740   1.000000   1.000000
     50          5.967797        5.999260   1.000000   1.000000
     51          6.186936        6.223668   1.000000   1.000000
     52          6.564222        6.858611   1.000000   1.000000
     53          6.858635        7.116192   1.000000   1.000000
     54          7.006522        7.328688   1.000000   1.000000
     55          7.263986        7.579167   1.000000   1.000000
     56          7.303240        7.632073   1.000000   1.000000
     57          7.832549        8.030153   1.000000   1.000000
     58          7.933612        8.694272   1.000000   1.000000
     59          7.956490        8.837225   1.000000   0.948412
     60          8.044304        9.144642   1.000000   0.354172
     61          8.091051        9.263323   1.000000  -0.009450
     62          8.761038        9.907634   0.870537   0.000000
     63          9.455367       10.566144   0.159717   0.000000
     64          9.546985       11.022966  -0.011716   0.000000
     65         10.444355       11.049347   0.000000   0.000000
     66         10.477579       11.404521   0.000000   0.000000
     67         10.787104       11.666940   0.000000   0.000000
     68         12.134900       12.670383   0.000000   0.000000
     69         12.790781       13.077774   0.000000   0.000000
     70         13.043346       13.331471   0.000000   0.000000
     71         13.699267       13.821564   0.000000   0.000000
     72         13.704126       14.107485   0.000000   0.000000
     73         14.013571       14.334262   0.000000   0.000000
     74         14.674275       14.892814   0.000000   0.000000
     75         15.031084       15.198811   0.000000   0.000000
     76         15.172132       16.569966   0.000000   0.000000
     77         16.130542       16.697541   0.000000   0.000000
     78         16.409156       16.855396   0.000000   0.000000
     79         16.551160       17.061378   0.000000   0.000000
     80         16.884185       17.557607   0.000000   0.000000
     81         17.171476       17.584299   0.000000   0.000000
     82         17.315863       19.674738   0.000000   0.000000
     83         19.889060       20.176672   0.000000   0.000000
     84         20.569769       20.931326   0.000000   0.000000
     85         21.985067       22.117563   0.000000   0.000000
     86         22.078171       22.158552   0.000000   0.000000
     87         22.589708       22.671544   0.000000   0.000000
     88         22.707267       22.844548   0.000000   0.000000
 
  0.4000000E+00  0.1259084E-14  0.1253793E-14  0.4800000E-01
      1        -61.630585      -61.564125   1.000000   1.000000
      2        -61.630243      -61.563811   1.000000   1.000000
      3        -61.629109      -61.562668   1.000000   1.000000
      4        -61.628341      -61.561857   1.000000   1.000000
      5        -61.590390      -61.536269   1.000000   1.000000
      6        -61.589411      -61.535287   1.000000   1.000000
      7        -61.557650      -61.524986   1.000000   1.000000
      8        -61.556579      -61.523911   1.000000   1.000000
      9        -61.470110      -61.468338   1.000000   1.000000
     10        -61.469541      -61.467748   1.000000   1.000000
     11        -61.467967      -61.466177   1.000000   1.000000
     12        -61.467143      -61.465371   1.000000   1.000000
     13        -53.922893      -53.951816   1.000000   1.000000
     14        -53.922636      -53.951557   1.000000   1.000000
     15        -53.893792      -53.937461   1.000000   1.000000
     16        -35.064036      -31.777112   1.000000   1.000000
     17        -35.008842      -31.747625   1.000000   1.000000
     18        -35.007751      -31.746141   1.000000   1.000000
     19        -12.661736      -12.678086   1.000000   1.000000
     20        -12.660460      -12.676726   1.000000   1.000000
     21        -12.651935      -12.668001   1.000000   1.000000
     22        -12.650154      -12.666400   1.000000   1.000000
     23        -12.645776      -12.662013   1.000000   1.000000
     24        -12.642186      -12.658538   1.000000   1.000000
     25        -12.620511      -12.630147   1.000000   1.000000
     26        -12.619639      -12.629448   1.000000   1.000000
     27        -12.611867      -12.621863   1.000000   1.000000
     28        -12.610570      -12.620544   1.000000   1.000000
     29         -0.603392       -0.596652   1.000000   1.000000
     30          0.407903        0.389764   1.000000   1.000000
     31          2.798657        2.885455   1.000000   1.000000
     32          3.127475        3.216260   1.000000   1.000000
     33          3.548846        3.669268   1.000000   1.000000
     34          4.390950        4.488046   1.000000   1.000000
     35          4.777979        4.850951   1.000000   1.000000
     36          4.789956        4.910671   1.000000   1.000000
     37          4.908498        4.963034   1.000000   1.000000
     38          5.043084        5.147306   1.000000   1.000000
     39          5.122591        5.184309   1.000000   1.000000
     40          5.245234        5.313126   1.000000   1.000000
     41          5.274552        5.374155   1.000000   1.000000
     42          5.470794        5.509876   1.000000   1.000000
     43          5.523100        5.601470   1.000000   1.000000
     44          5.527278        5.633229   1.000000   1.000000
     45          5.626315        5.668608   1.000000   1.000000
     46          5.635965        5.670158   1.000000   1.000000
     47          5.676028        5.714742   1.000000   1.000000
     48          5.716507        5.776133   1.000000   1.000000
     49          5.757772        5.837170   1.000000   1.000000
     50          5.838279        5.893806   1.000000   1.000000
     51          5.928953        5.980908   1.000000   1.000000
     52          6.033857        6.114231   1.000000   1.000000
     53          6.631956        6.687482   1.000000   1.000000
     54          6.877784        7.206375   1.000000   1.000000
     55          7.176081        7.378151   1.000000   1.000000
     56          7.186340        7.409369   1.000000   1.000000
     57          7.597168        7.766055   1.000000   1.000000
     58          7.720564        8.100116   1.000000   1.000000
     59          7.952011        8.195018   1.000000   1.000000
     60          8.024089        8.552073   1.000000   1.015816
     61          8.113553        8.799278   1.000000   0.898354
     62          8.325432        9.147215   1.000000   0.000000
     63          8.438313       10.598633   1.012576   0.000000
     64          8.733119       10.679273   0.945720   0.000000
     65          9.091130       10.723670   0.364828   0.000000
     66          9.277733       10.992440  -0.012668   0.000000
     67         10.624656       11.376358   0.000000   0.000000
     68         11.036757       11.939029   0.000000   0.000000
     69         13.155203       13.458242   0.000000   0.000000
     70         14.091601       14.308788   0.000000   0.000000
     71         14.489193       14.836695   0.000000   0.000000
     72         14.627944       14.949667   0.000000   0.000000
     73         15.170681       15.573350   0.000000   0.000000
     74         15.367873       15.995854   0.000000   0.000000
     75         15.714333       16.889066   0.000000   0.000000
     76         16.501121       17.122119   0.000000   0.000000
     77         16.943956       17.474381   0.000000   0.000000
     78         17.321897       18.436865   0.000000   0.000000
     79         18.339674       19.152287   0.000000   0.000000
     80         18.824862       19.209853   0.000000   0.000000
     81         18.951164       19.690503   0.000000   0.000000
     82         20.737645       20.812714   0.000000   0.000000
     83         21.123924       21.251932   0.000000   0.000000
     84         21.511662       21.632971   0.000000   0.000000
     85         21.664312       21.778979   0.000000   0.000000
     86         21.804285       22.022096   0.000000   0.000000
     87         22.282965       22.406336   0.000000   0.000000
     88         22.364555       22.470293   0.000000   0.000000
 
  0.2000000E+00  0.2000000E+00  0.1273087E-14  0.4800000E-01
      1        -61.630524      -61.564066   1.000000   1.000000
      2        -61.630350      -61.563902   1.000000   1.000000
      3        -61.628602      -61.562132   1.000000   1.000000
      4        -61.628266      -61.561780   1.000000   1.000000
      5        -61.590766      -61.536688   1.000000   1.000000
      6        -61.589011      -61.534942   1.000000   1.000000
      7        -61.558126      -61.525438   1.000000   1.000000
      8        -61.555957      -61.523232   1.000000   1.000000
      9        -61.470008      -61.468237   1.000000   1.000000
     10        -61.469748      -61.467969   1.000000   1.000000
     11        -61.467463      -61.465684   1.000000   1.000000
     12        -61.467104      -61.465331   1.000000   1.000000
     13        -53.922665      -53.951585   1.000000   1.000000
     14        -53.922567      -53.951488   1.000000   1.000000
     15        -53.893756      -53.937426   1.000000   1.000000
     16        -35.064160      -31.777279   1.000000   1.000000
     17        -35.008003      -31.746476   1.000000   1.000000
     18        -35.007586      -31.745906   1.000000   1.000000
     19        -12.662571      -12.678657   1.000000   1.000000
     20        -12.660803      -12.676766   1.000000   1.000000
     21        -12.655307      -12.671848   1.000000   1.000000
     22        -12.653481      -12.669891   1.000000   1.000000
     23        -12.648567      -12.665013   1.000000   1.000000
     24        -12.643630      -12.660140   1.000000   1.000000
     25        -12.618861      -12.628554   1.000000   1.000000
     26        -12.617390      -12.627227   1.000000   1.000000
     27        -12.617135      -12.627088   1.000000   1.000000
     28        -12.612251      -12.622039   1.000000   1.000000
     29         -1.734579       -1.710279   1.000000   1.000000
     30          0.001699       -0.010743   1.000000   1.000000
     31          2.561515        2.675267   1.000000   1.000000
     32          4.072627        4.123525   1.000000   1.000000
     33          4.129728        4.246819   1.000000   1.000000
     34          4.476499        4.552437   1.000000   1.000000
     35          4.497181        4.556217   1.000000   1.000000
     36          4.776595        4.865316   1.000000   1.000000
     37          4.973871        5.060876   1.000000   1.000000
     38          5.006199        5.063324   1.000000   1.000000
     39          5.022274        5.090270   1.000000   1.000000
     40          5.216897        5.295322   1.000000   1.000000
     41          5.362948        5.443906   1.000000   1.000000
     42          5.520704        5.601598   1.000000   1.000000
     43          5.565341        5.635206   1.000000   1.000000
     44          5.650624        5.721468   1.000000   1.000000
     45          5.651286        5.763303   1.000000   1.000000
     46          5.704137        5.806650   1.000000   1.000000
     47          5.774917        5.821480   1.000000   1.000000
     48          5.816108        5.843135   1.000000   1.000000
     49          5.872362        5.903365   1.000000   1.000000
     50          6.045874        6.086255   1.000000   1.000000
     51          6.053113        6.091534   1.000000   1.000000
     52          6.228283        6.579822   1.000000   1.000000
     53          7.017641        7.209324   1.000000   1.000000
     54          7.102971        7.316101   1.000000   1.000000
     55          7.270570        7.624375   1.000000   1.000000
     56          7.277738        7.653199   1.000000   1.000000
     57          7.787465        8.068453   1.000000   1.000000
     58          7.926117        8.477451   1.000000   1.000000
     59          7.960126        8.636400   1.000000   1.018738
     60          8.047209        9.244262   1.000000   0.210747
     61          8.109800        9.503482   1.000000  -0.000611
     62          8.852616       10.233602   0.848071   0.000000
     63          9.232131       10.626854   0.307673   0.000000
     64          9.242003       10.683803   0.214730   0.000000
     65         10.758111       11.008682   0.000000   0.000000
     66         11.119023       11.830870   0.000000   0.000000
     67         11.148517       11.843540   0.000000   0.000000
     68         11.253115       11.921288   0.000000   0.000000
     69         13.024585       13.367322   0.000000   0.000000
     70         13.031946       13.402325   0.000000   0.000000
     71         13.718960       13.867161   0.000000   0.000000
     72         13.963360       14.037739   0.000000   0.000000
     73         14.038193       14.484435   0.000000   0.000000
     74         14.275120       14.517712   0.000000   0.000000
     75         14.719171       15.087719   0.000000   0.000000
     76         15.172875       15.666180   0.000000   0.000000
     77         15.200867       15.695931   0.000000   0.000000
     78         15.248527       16.764001   0.000000   0.000000
     79         16.395546       17.685137   0.000000   0.000000
     80         17.489707       19.217419   0.000000   0.000000
     81         19.023756       19.344598   0.000000   0.000000
     82         19.179784       19.677954   0.000000   0.000000
     83         20.250308       20.348844   0.000000   0.000000
     84         20.338516       20.487515   0.000000   0.000000
     85         20.913033       21.201570   0.000000   0.000000
     86         20.944230       21.234523   0.000000   0.000000
     87         22.627044       22.984992   0.000000   0.000000
     88         23.130675       23.315308   0.000000   0.000000
 
  0.4000000E+00  0.2000000E+00  0.1086144E-14  0.9600000E-01
      1        -61.630720      -61.564272   1.000000   1.000000
      2        -61.630187      -61.563747   1.000000   1.000000
      3        -61.629117      -61.562661   1.000000   1.000000
      4        -61.628299      -61.561822   1.000000   1.000000
      5        -61.590530      -61.536420   1.000000   1.000000
      6        -61.589334      -61.535217   1.000000   1.000000
      7        -61.557815      -61.525146   1.000000   1.000000
      8        -61.556455      -61.523777   1.000000   1.000000
      9        -61.470284      -61.468508   1.000000   1.000000
     10        -61.469488      -61.467700   1.000000   1.000000
     11        -61.468004      -61.466218   1.000000   1.000000
     12        -61.467040      -61.465266   1.000000   1.000000
     13        -53.922892      -53.951814   1.000000   1.000000
     14        -53.922657      -53.951578   1.000000   1.000000
     15        -53.893824      -53.937493   1.000000   1.000000
     16        -35.064060      -31.777146   1.000000   1.000000
     17        -35.008539      -31.747213   1.000000   1.000000
     18        -35.007865      -31.746294   1.000000   1.000000
     19        -12.661226      -12.677376   1.000000   1.000000
     20        -12.660487      -12.676686   1.000000   1.000000
     21        -12.652228      -12.668392   1.000000   1.000000
     22        -12.650159      -12.666593   1.000000   1.000000
     23        -12.649071      -12.665443   1.000000   1.000000
     24        -12.641054      -12.657416   1.000000   1.000000
     25        -12.621121      -12.630752   1.000000   1.000000
     26        -12.617842      -12.627763   1.000000   1.000000
     27        -12.613429      -12.623380   1.000000   1.000000
     28        -12.611136      -12.620940   1.000000   1.000000
     29         -0.899552       -0.888356   1.000000   1.000000
     30          0.309050        0.299060   1.000000   1.000000
     31          2.956640        3.038442   1.000000   1.000000
     32          3.376986        3.471660   1.000000   1.000000
     33          3.745471        3.827109   1.000000   1.000000
     34          4.455620        4.530035   1.000000   1.000000
     35          4.583340        4.685823   1.000000   1.000000
     36          4.637295        4.774023   1.000000   1.000000
     37          4.956695        5.041086   1.000000   1.000000
     38          5.043953        5.106974   1.000000   1.000000
     39          5.187595        5.240487   1.000000   1.000000
     40          5.237042        5.322332   1.000000   1.000000
     41          5.350708        5.429374   1.000000   1.000000
     42          5.403229        5.483124   1.000000   1.000000
     43          5.481147        5.610610   1.000000   1.000000
     44          5.543811        5.630235   1.000000   1.000000
     45          5.591097        5.640861   1.000000   1.000000
     46          5.615829        5.661333   1.000000   1.000000
     47          5.697579        5.737905   1.000000   1.000000
     48          5.719242        5.777775   1.000000   1.000000
     49          5.835172        5.864669   1.000000   1.000000
     50          5.876393        5.921417   1.000000   1.000000
     51          5.954506        6.043116   1.000000   1.000000
     52          6.155522        6.312337   1.000000   1.000000
     53          6.559409        6.608584   1.000000   1.000000
     54          6.746225        6.938600   1.000000   1.000000
     55          6.848132        7.004169   1.000000   1.000000
     56          7.472198        7.711847   1.000000   1.000000
     57          7.736125        7.907907   1.000000   1.000000
     58          7.820747        8.075104   1.000000   1.000000
     59          7.964595        8.218935   1.000000   1.000000
     60          7.987702        8.571255   1.000000   1.061715
     61          8.084314        9.073759   1.000000   0.396136
     62          8.238983        9.796573   1.000000   0.000000
     63          8.473565       10.300511   1.019499   0.000000
     64          8.633713       10.702591   0.937324   0.000000
     65          9.240303       10.917168   0.109974   0.000000
     66          9.807933       11.289735  -0.021697   0.000000
     67         11.898964       12.262766   0.000000   0.000000
     68         12.438605       12.704651   0.000000   0.000000
     69         12.736239       13.143599   0.000000   0.000000
     70         13.176769       13.364235   0.000000   0.000000
     71         13.252502       13.689108   0.000000   0.000000
     72         13.558885       14.140550   0.000000   0.000000
     73         14.497804       14.845713   0.000000   0.000000
     74         15.172243       16.101734   0.000000   0.000000
     75         15.798827       16.649440   0.000000   0.000000
     76         16.462648       17.003320   0.000000   0.000000
     77         16.693169       17.748561   0.000000   0.000000
     78         17.709107       18.590334   0.000000   0.000000
     79         18.347441       19.072466   0.000000   0.000000
     80         19.006172       19.676128   0.000000   0.000000
     81         19.362946       19.720619   0.000000   0.000000
     82         20.079540       20.209314   0.000000   0.000000
     83         20.825745       20.971124   0.000000   0.000000
     84         21.020141       21.166759   0.000000   0.000000
     85         21.053831       21.357192   0.000000   0.000000
     86         21.776905       21.880546   0.000000   0.000000
     87         22.446083       22.583476   0.000000   0.000000
     88         23.195761       23.356074   0.000000   0.000000
 
 -0.4000000E+00  0.2000000E+00  0.1284261E-14  0.9600000E-01
      1        -61.630759      -61.564318   1.000000   1.000000
      2        -61.629831      -61.563386   1.000000   1.000000
      3        -61.629323      -61.562881   1.000000   1.000000
      4        -61.628243      -61.561771   1.000000   1.000000
      5        -61.590123      -61.535985   1.000000   1.000000
      6        -61.589670      -61.535530   1.000000   1.000000
      7        -61.557335      -61.524682   1.000000   1.000000
      8        -61.556924      -61.524270   1.000000   1.000000
      9        -61.470321      -61.468543   1.000000   1.000000
     10        -61.469025      -61.467234   1.000000   1.000000
     11        -61.468287      -61.466495   1.000000   1.000000
     12        -61.466967      -61.465191   1.000000   1.000000
     13        -53.922779      -53.951700   1.000000   1.000000
     14        -53.922682      -53.951604   1.000000   1.000000
     15        -53.893795      -53.937466   1.000000   1.000000
     16        -35.063997      -31.777060   1.000000   1.000000
     17        -35.008786      -31.747550   1.000000   1.000000
     18        -35.008114      -31.746637   1.000000   1.000000
     19        -12.660072      -12.676308   1.000000   1.000000