Automatically generated mesh
      19
Reciprocal lattice
    0.00000000000000    0.00000000000000    0.00000000000000             1
    0.20000000000000    0.00000000000000    0.00000000000000             6
    0.40000000000000    0.00000000000000    0.00000000000000             6
    0.20000000000000    0.20000000000000    0.00000000000000             6
    0.40000000000000    0.20000000000000    0.00000000000000            12
   -0.40000000000000    0.20000000000000    0.00000000000000            12
   -0.20000000000000    0.20000000000000    0.00000000000000             6
    0.40000000000000    0.40000000000000    0.00000000000000             6
   -0.40000000000000    0.40000000000000    0.00000000000000             6
    0.20000000000000    0.20000000000000    0.20000000000000             2
    0.40000000000000    0.20000000000000    0.20000000000000             6
   -0.40000000000000    0.20000000000000    0.20000000000000             6
   -0.20000000000000    0.20000000000000    0.20000000000000             6
    0.40000000000000    0.40000000000000    0.20000000000000             6
   -0.40000000000000    0.40000000000000    0.20000000000000            12
   -0.20000000000000    0.40000000000000    0.20000000000000            12
   -0.40000000000000   -0.40000000000000    0.20000000000000             6
    0.40000000000000    0.40000000000000    0.40000000000000             2
   -0.40000000000000    0.40000000000000    0.40000000000000             6
Tetrahedra
        65    0.00133333333333
        12        10        11        14        18
        12        11        14        15        19
        12        11        12        15        19
        12        11        14        18        19
        12        12        15        16        17
        12        12        13        16        17
        12        12        15        17        19
        12         5         8        13        16
        12         4         5         8        13
        12         8        13        16        17
        12         4         5        11        14
        12         4        10        11        14
        12         4         5         8        14
        12        14        15        17        19
        12        14        15        19        19
        12        14        18        19        19
        12        15        15        16        17
         6        15        15        16        16
        12        15        15        17        19
         6        15        15        19        19
        12         6         9        16        16
        12         5         6         9        16
        12         5         8         9        16
        12         9        15        16        16
        12         9        15        16        17
        12         8         9        16        17
        12         5         6        12        15
        12         5        11        12        15
        12         5        11        14        15
        12         5         6         9        15
        12         5         8         9        15
        12         5         8        14        15
        12         6         7        13        16
        12         6         6         7        16
        12         6         6         9        16
        12         6        12        13        16
        12         6        12        15        16
        12         6         9        15        16
        12         2         3         7        13
        12         3         6         7        13
        12         3         6        12        13
        12         2         4         5         7
        12         4         5         7        13
        12         5         7        13        16
        12         2         3         5         7
        12         3         5         6         7
        12         5         6         7        16
        12         2         4        10        11
        12         2         4         5        11
        12         2         3         5        11
         6        18        18        19        19
        12         8         9        15        17
        12         8         8         9        17
        12         8        14        15        17
        12         3         3         6        12
        12         3         5         6        12
        12         3         5        11        12
        12         3         5         6         6
        12         5         6         6        16
         6         6         6        16        16
         6         3         3         6         6
        12         1         2         4        10
        12         2         2         4         7
        12         2         4         7        13
        12         1         2         2         4
