 vasp.6.4.3 19Mar24 (build Feb 19 2025 12:53:47) complex                         
 executed on              LinuxNV date 2025.04.25  11:31:48
 running    8 mpi-ranks, with    1 threads/rank, on    1 nodes
 distrk:  each k-point on    8 cores,    1 groups
 distr:  one band on NCORE=   1 cores,    8 groups
 OpenACC runtime initialized ...    8 GPUs detected


--------------------------------------------------------------------------------------------------------


 INCAR:
   ALGO = Fast
   EDIFF = 0.0004
   ENCUT = 520.0
   IBRION = 2
   ISIF = 3
   ISMEAR = -5
   ISPIN = 2
   LASPH = True
   LMAXMIX = 4
   LORBIT = 11
   LREAL = Auto
   LWAVE = False
   MAGMOM = 1*5 4*0.6 1*5 2*0.6
   NELM = 100
   NSW = 99
   PREC = Accurate
   SIGMA = 0.05

 POTCAR:    PAW_PBE Cr_pv 02Aug2007               
 POTCAR:    PAW_PBE Cu_pv 06Sep2000               
 POTCAR:    PAW_PBE Ni_pv 06Sep2000               
 POTCAR:    PAW_PBE Sn_d 06Sep2000                
 POTCAR:    PAW_PBE Cr_pv 02Aug2007               
   SHA256 =  c9a7df34d3cdbacf1090e328ef39c0b420964e11c23f63548d1ac9dd218cdba0 Cr_pv/POTCAR          
   COPYR  = (c) Copyright 02Aug2007 Georg Kresse                                                    
   COPYR  = This file is part of the software VASP. Any use, copying, and all other rights are regul
   COPYR  = If you do not have a valid VASP license, you may not use, copy or distribute this file. 
   VRHFIN =Cr : p6d5s1                                                                              
   LEXCH  = PE                                                                                      
   EATOM  =  1647.9177 eV,  121.1185 Ry                                                             
                                                                                                    
   TITEL  = PAW_PBE Cr_pv 02Aug2007                                                                 
   LULTRA =        F    use ultrasoft PP ?                                                          
   IUNSCR =        1    unscreen: 0-lin 1-nonlin 2-no                                               
   RPACOR =    2.080    partial core radius                                                         
   POMASS =   51.996; ZVAL   =   12.000    mass and valenz                                          
   RCORE  =    2.300    outmost cutoff radius                                                       
   RWIGS  =    2.500; RWIGS  =    1.323    wigner-seitz radius (au A)                               
   ENMAX  =  265.681; ENMIN  =  199.261 eV                                                          
   ICORE  =        3    local potential                                                             
   LCOR   =        T    correct aug charges                                                         
   LPAW   =        T    paw PP                                                                      
   EAUG   =  519.424                                                                                
   DEXC   =    0.000                                                                                
   RMAX   =    2.356    core radius for proj-oper                                                   
   RAUG   =    1.300    factor for augmentation sphere                                              
   RDEP   =    2.447    radius for radial grids                                                     
   RDEPT  =    1.882    core radius for aug-charge                                                  
                                                                                                    
   Atomic configuration                                                                             
    8 entries                                                                                       
     n  l   j            E        occ.                                                              
     1  0  0.50     -5880.4963   2.0000                                                             
     2  0  0.50      -667.0865   2.0000                                                             
     2  1  1.50      -560.6250   6.0000                                                             
     3  0  0.50       -73.9860   2.0000                                                             
     3  1  1.50       -45.4378   6.0000                                                             
     3  2  2.50        -2.9137   5.0000                                                             
     4  0  0.50        -4.0071   1.0000                                                             
     4  3  2.50        -1.3606   0.0000                                                             
   Description                                                                                      
     l       E           TYP  RCUT    TYP  RCUT                                                     
     1    -45.4377911     23  2.000                                                                 
     1      1.3605826     23  2.000                                                                 
     2     -2.9136672     23  2.300                                                                 
     2     -4.2742498     23  2.300                                                                 
     0     -4.0071320     23  2.300                                                                 
     0      9.4498803     23  2.300                                                                 
     3      2.7211652     23  2.300                                                                 
  local pseudopotential read in
  partial core-charges read in
  partial kinetic energy density read in
  atomic valenz-charges read in
  non local Contribution for L=            1  read in
    real space projection operators read in
  non local Contribution for L=            1  read in
    real space projection operators read in
  non local Contribution for L=            2  read in
    real space projection operators read in
  non local Contribution for L=            2  read in
    real space projection operators read in
  non local Contribution for L=            0  read in
    real space projection operators read in
  non local Contribution for L=            0  read in
    real space projection operators read in
    PAW grid and wavefunctions read in
 
   number of l-projection  operators is LMAX  =            6
   number of lm-projection operators is LMMAX =           18
 
 POTCAR:    PAW_PBE Cu_pv 06Sep2000               
   SHA256 =  cb7b504e2ea725fe1f25c85a9ac77d4012ce94cd394135b722c4e25ec297f1cb Cu_pv/POTCAR          
   COPYR  = (c) Copyright 06Sep2000 Georg Kresse                                                    
   COPYR  = This file is part of the software VASP. Any use, copying, and all other rights are regul
   COPYR  = If you do not have a valid VASP license, you may not use, copy or distribute this file. 
   VRHFIN =Cu: d10 p1                                                                               
   LEXCH  = PE                                                                                      
   EATOM  =  4120.1201 eV,  302.8203 Ry                                                             
                                                                                                    
   TITEL  = PAW_PBE Cu_pv 06Sep2000                                                                 
   LULTRA =        F    use ultrasoft PP ?                                                          
   IUNSCR =        1    unscreen: 0-lin 1-nonlin 2-no                                               
   RPACOR =    1.500    partial core radius                                                         
   POMASS =   63.546; ZVAL   =   17.000    mass and valenz                                          
   RCORE  =    2.000    outmost cutoff radius                                                       
   RWIGS  =    2.000; RWIGS  =    1.058    wigner-seitz radius (au A)                               
   ENMAX  =  368.648; ENMIN  =  276.486 eV                                                          
   RCLOC  =    1.304    cutoff for local pot                                                        
   LCOR   =        T    correct aug charges                                                         
   LPAW   =        T    paw PP                                                                      
   EAUG   =  758.233                                                                                
   DEXC   =    0.000                                                                                
   RMAX   =    2.046    core radius for proj-oper                                                   
   RAUG   =    1.300    factor for augmentation sphere                                              
   RDEP   =    2.025    radius for radial grids                                                     
   RDEPT  =    1.558    core radius for aug-charge                                                  
                                                                                                    
   Atomic configuration                                                                             
    8 entries                                                                                       
     n  l   j            E        occ.                                                              
     1  0  0.50     -8850.2467   2.0000                                                             
     2  0  0.50     -1062.3498   2.0000                                                             
     2  1  1.50      -916.8226   6.0000                                                             
     3  0  0.50      -114.6929   2.0000                                                             
     3  1  1.50       -72.1325   6.0000                                                             
     3  2  2.50        -5.0394  10.0000                                                             
     4  0  0.50        -4.6097   1.0000                                                             
     4  3  2.50        -1.3606   0.0000                                                             
   Description                                                                                      
     l       E           TYP  RCUT    TYP  RCUT                                                     
     1    -72.1324777     23  1.700                                                                 
     1     -1.3605826     23  1.700                                                                 
     2     -5.0393776     23  2.000                                                                 
     2     -6.3999602     23  2.000                                                                 
     0     -4.6097062     23  1.800                                                                 
     0     14.1620818     23  1.800                                                                 
  local pseudopotential read in
  partial core-charges read in
  partial kinetic energy density read in
  atomic valenz-charges read in
  non local Contribution for L=            1  read in
    real space projection operators read in
  non local Contribution for L=            1  read in
    real space projection operators read in
  non local Contribution for L=            2  read in
    real space projection operators read in
  non local Contribution for L=            2  read in
    real space projection operators read in
  non local Contribution for L=            0  read in
    real space projection operators read in
  non local Contribution for L=            0  read in
    real space projection operators read in
    PAW grid and wavefunctions read in
 
   number of l-projection  operators is LMAX  =            6
   number of lm-projection operators is LMMAX =           18
 
 POTCAR:    PAW_PBE Ni_pv 06Sep2000               
   SHA256 =  368cd815a19284a5fda64519f43fef792dad8376deb9e2da41aae78b997dc50e Ni_pv/POTCAR          
   COPYR  = (c) Copyright 06Sep2000 Georg Kresse                                                    
   COPYR  = This file is part of the software VASP. Any use, copying, and all other rights are regul
   COPYR  = If you do not have a valid VASP license, you may not use, copy or distribute this file. 
   VRHFIN =Ni:                                                                                      
   LEXCH  = PE                                                                                      
   EATOM  =  3501.1230 eV,  257.3253 Ry                                                             
                                                                                                    
   TITEL  = PAW_PBE Ni_pv 06Sep2000                                                                 
   LULTRA =        F    use ultrasoft PP ?                                                          
   IUNSCR =        1    unscreen: 0-lin 1-nonlin 2-no                                               
   RPACOR =    1.500    partial core radius                                                         
   POMASS =   58.690; ZVAL   =   16.000    mass and valenz                                          
   RCORE  =    2.000    outmost cutoff radius                                                       
   RWIGS  =    2.000; RWIGS  =    1.058    wigner-seitz radius (au A)                               
   ENMAX  =  367.986; ENMIN  =  275.989 eV                                                          
   RCLOC  =    1.301    cutoff for local pot                                                        
   LCOR   =        T    correct aug charges                                                         
   LPAW   =        T    paw PP                                                                      
   EAUG   =  703.443                                                                                
   DEXC   =    0.000                                                                                
   RMAX   =    2.041    core radius for proj-oper                                                   
   RAUG   =    1.300    factor for augmentation sphere                                              
   RDEP   =    2.103    radius for radial grids                                                     
   RDEPT  =    1.618    core radius for aug-charge                                                  
                                                                                                    
   Atomic configuration                                                                             
    8 entries                                                                                       
     n  l   j            E        occ.                                                              
     1  0  0.50     -8206.4253   2.0000                                                             
     2  0  0.50      -976.1748   2.0000                                                             
     2  1  1.50      -839.0571   6.0000                                                             
     3  0  0.50      -105.9991   2.0000                                                             
     3  1  1.50       -66.4603   6.0000                                                             
     3  2  2.50        -4.6458   9.0000                                                             
     4  0  0.50        -4.4926   1.0000                                                             
     4  3  2.50        -1.3606   0.0000                                                             
   Description                                                                                      
     l       E           TYP  RCUT    TYP  RCUT                                                     
     1    -66.4602962     23  1.700                                                                 
     1     -1.3605826     23  1.700                                                                 
     2     -4.6457867     23  2.000                                                                 
     2     -6.0063693     23  2.000                                                                 
     0     -4.4925576     23  1.900                                                                 
     0     16.3626226     23  1.900                                                                 
  local pseudopotential read in
  partial core-charges read in
  partial kinetic energy density read in
  atomic valenz-charges read in
  non local Contribution for L=            1  read in
    real space projection operators read in
  non local Contribution for L=            1  read in
    real space projection operators read in
  non local Contribution for L=            2  read in
    real space projection operators read in
  non local Contribution for L=            2  read in
    real space projection operators read in
  non local Contribution for L=            0  read in
    real space projection operators read in
  non local Contribution for L=            0  read in
    real space projection operators read in
    PAW grid and wavefunctions read in
 
   number of l-projection  operators is LMAX  =            6
   number of lm-projection operators is LMMAX =           18
 
 POTCAR:    PAW_PBE Sn_d 06Sep2000                
   SHA256 =  385b269c1887fa92a2bd1b595c4ea1490c7eb92f9f3d87257729a4a813cde741 Sn_d/POTCAR           
   COPYR  = (c) Copyright 06Sep2000 Georg Kresse                                                    
   COPYR  = This file is part of the software VASP. Any use, copying, and all other rights are regul
   COPYR  = If you do not have a valid VASP license, you may not use, copy or distribute this file. 
   VRHFIN =Sn: s2p2                                                                                 
   LEXCH  = PE                                                                                      
   EATOM  =  1893.1092 eV,  139.1396 Ry                                                             
                                                                                                    
   TITEL  = PAW_PBE Sn_d 06Sep2000                                                                  
   LULTRA =        F    use ultrasoft PP ?                                                          
   IUNSCR =        1    unscreen: 0-lin 1-nonlin 2-no                                               
   RPACOR =    2.300    partial core radius                                                         
   POMASS =  118.710; ZVAL   =   14.000    mass and valenz                                          
   RCORE  =    2.500    outmost cutoff radius                                                       
   RWIGS  =    2.960; RWIGS  =    1.566    wigner-seitz radius (au A)                               
   ENMAX  =  241.083; ENMIN  =  180.812 eV                                                          
   ICORE  =        3    local potential                                                             
   LCOR   =        T    correct aug charges                                                         
   LPAW   =        T    paw PP                                                                      
   EAUG   =  439.825                                                                                
   DEXC   =    0.000                                                                                
   RMAX   =    2.560    core radius for proj-oper                                                   
   RAUG   =    1.300    factor for augmentation sphere                                              
   RDEP   =    2.659    radius for radial grids                                                     
   RDEPT  =    2.046    core radius for aug-charge                                                  
                                                                                                    
   Atomic configuration                                                                             
   12 entries                                                                                       
     n  l   j            E        occ.                                                              
     1  0  0.50    -29007.2859   2.0000                                                             
     2  0  0.50     -4378.8056   2.0000                                                             
     2  1  1.50     -3930.4293   6.0000                                                             
     3  0  0.50      -845.0264   2.0000                                                             
     3  1  1.50      -698.5725   6.0000                                                             
     3  2  2.50      -473.2839  10.0000                                                             
     4  0  0.50      -133.9036   2.0000                                                             
     4  1  1.50       -89.6752   6.0000                                                             
     4  2  2.50       -25.8375  10.0000                                                             
     5  0  0.50       -10.5484   2.0000                                                             
     5  1  0.50        -3.6940   2.0000                                                             
     4  3  2.50        -2.7416   0.0000                                                             
   Description                                                                                      
     l       E           TYP  RCUT    TYP  RCUT                                                     
     2    -25.8374624     23  2.500                                                                 
     2     -5.4423304     23  2.500                                                                 
     0    -10.5483727     23  2.500                                                                 
     0     13.6058260     23  2.500                                                                 
     1     -3.6939829     23  2.500                                                                 
     1      1.9821976     23  2.500                                                                 
     3     -1.3605826      7  2.500                                                                 
  local pseudopotential read in
  partial core-charges read in
  partial kinetic energy density read in
  atomic valenz-charges read in
  non local Contribution for L=            2  read in
    real space projection operators read in
  non local Contribution for L=            2  read in
    real space projection operators read in
  non local Contribution for L=            0  read in
    real space projection operators read in
  non local Contribution for L=            0  read in
    real space projection operators read in
  non local Contribution for L=            1  read in
    real space projection operators read in
  non local Contribution for L=            1  read in
    real space projection operators read in
    PAW grid and wavefunctions read in
 
   number of l-projection  operators is LMAX  =            6
   number of lm-projection operators is LMMAX =           18
 
 -----------------------------------------------------------------------------
|                                                                             |
|               ----> ADVICE to this user running VASP <----                  |
|                                                                             |
|     You have a (more or less) 'small supercell' and for smaller cells       |
|     it is recommended to use the reciprocal-space projection scheme!        |
|     The real-space optimization is not efficient for small cells and it     |
|     is also less accurate ...                                               |
|     Therefore, set LREAL=.FALSE. in the INCAR file.                         |
|                                                                             |
 -----------------------------------------------------------------------------

 Optimization of the real space projectors (new method)

 maximal supplied QI-value         = 16.25
 optimisation between [QCUT,QGAM] = [ 11.54, 23.24] = [ 37.28,151.24] Ry 
 Optimized for a Real-space Cutoff    1.32 Angstroem

   l    n(q)    QCUT    max X(q) W(low)/X(q) W(high)/X(q)  e(spline) 
   1      9    11.539     3.262    0.69E-04    0.25E-03    0.10E-06
   1      9    11.539     5.741    0.20E-03    0.59E-03    0.25E-06
   2      8    11.539    60.438    0.24E-03    0.41E-03    0.22E-06
   2      8    11.539    55.380    0.24E-03    0.42E-03    0.23E-06
   0      9    11.539    80.273    0.11E-03    0.13E-03    0.76E-07
   0      9    11.539    36.654    0.95E-04    0.12E-03    0.68E-07
 Optimization of the real space projectors (new method)

 maximal supplied QI-value         = 18.90
 optimisation between [QCUT,QGAM] = [ 11.53, 23.24] = [ 37.21,151.29] Ry 
 Optimized for a Real-space Cutoff    1.36 Angstroem

   l    n(q)    QCUT    max X(q) W(low)/X(q) W(high)/X(q)  e(spline) 
   1      9    11.527     3.172    0.21E-04    0.38E-04    0.11E-06
   1      9    11.527     4.083    0.67E-04    0.79E-04    0.20E-06
   2      9    11.527    65.342    0.13E-03    0.28E-03    0.26E-06
   2      9    11.527    61.381    0.13E-03    0.29E-03    0.26E-06
   0      9    11.527    65.742    0.32E-04    0.21E-04    0.72E-07
   0      9    11.527    30.431    0.28E-04    0.19E-04    0.65E-07
 Optimization of the real space projectors (new method)

 maximal supplied QI-value         = 18.90
 optimisation between [QCUT,QGAM] = [ 11.53, 23.24] = [ 37.21,151.29] Ry 
 Optimized for a Real-space Cutoff    1.36 Angstroem

   l    n(q)    QCUT    max X(q) W(low)/X(q) W(high)/X(q)  e(spline) 
   1      9    11.527     2.836    0.16E-04    0.30E-04    0.95E-07
   1      9    11.527     4.023    0.73E-04    0.81E-04    0.21E-06
   2      9    11.527    73.368    0.15E-03    0.29E-03    0.28E-06
   2      9    11.527    69.010    0.15E-03    0.29E-03    0.29E-06
   0      9    11.527    54.797    0.43E-04    0.28E-04    0.85E-07
   0      9    11.527    24.266    0.33E-04    0.24E-04    0.75E-07
 Optimization of the real space projectors (new method)

 maximal supplied QI-value         = 15.12
 optimisation between [QCUT,QGAM] = [ 11.64, 23.28] = [ 37.95,151.78] Ry 
 Optimized for a Real-space Cutoff    1.36 Angstroem

   l    n(q)    QCUT    max X(q) W(low)/X(q) W(high)/X(q)  e(spline) 
   2      9    11.641     5.880    0.49E-04    0.15E-04    0.99E-07
   2      9    11.641     7.804    0.17E-03    0.18E-03    0.15E-06
   0      9    11.641    20.557    0.10E-03    0.34E-04    0.76E-07
   0      9    11.641     9.400    0.13E-03    0.43E-04    0.95E-07
   1      9    11.641    94.178    0.25E-03    0.19E-03    0.20E-06
   1      9    11.641    56.401    0.24E-03    0.18E-03    0.20E-06
  PAW_PBE Cr_pv 02Aug2007               :
 energy of atom  1       EATOM=-1647.9177
 kinetic energy error for atom=    0.0057 (will be added to EATOM!!)
  PAW_PBE Cu_pv 06Sep2000               :
 energy of atom  2       EATOM=-4120.1201
 kinetic energy error for atom=    0.0541 (will be added to EATOM!!)
  PAW_PBE Ni_pv 06Sep2000               :
 energy of atom  3       EATOM=-3501.1230
 kinetic energy error for atom=    0.0575 (will be added to EATOM!!)
  PAW_PBE Sn_d 06Sep2000                :
 energy of atom  4       EATOM=-1893.1092
 kinetic energy error for atom=    0.0026 (will be added to EATOM!!)
 
 
 POSCAR: Cr1 Cu4 Ni1 Sn2
  positions in direct lattice
  No initial velocities read in


 exchange-correlation table for PE
   RHO(1)=    0.500       N(1)  =     2000
   RHO(2)=  100.500       N(2)  =     4000
 


--------------------------------------------------------------------------------------------------------


 ion  position               nearest neighbor table
   1  0.000  0.000  0.000-   3 2.68   5 2.68   4 2.68   4 2.68   2 2.68   2 2.68   4 2.68   2 2.68
                             7 3.08   8 3.08   7 3.08   8 3.08   7 3.08   8 3.08
   2  0.376  0.376  0.376-   7 2.66   7 2.66   7 2.66   1 2.68   1 2.68   1 2.68   8 2.69
   3  0.874  0.874  0.874-   7 2.62   8 2.67   8 2.67   8 2.67   1 2.68
   4  0.624  0.624  0.624-   8 2.66   8 2.66   8 2.66   1 2.68   1 2.68   1 2.68   7 2.69
   5  0.126  0.126  0.126-   8 2.62   7 2.67   7 2.67   7 2.67   1 2.68
   6  0.500  0.500  0.500-   8 3.07   8 3.07   7 3.07   7 3.07   8 3.07   7 3.07
   7  0.750  0.750  0.750-   3 2.62   2 2.66   2 2.66   2 2.66   5 2.67   5 2.67   5 2.67   4 2.69
                             6 3.07   6 3.07   6 3.07   1 3.08   1 3.08   1 3.08
   8  0.250  0.250  0.250-   5 2.62   4 2.66   4 2.66   4 2.66   3 2.67   3 2.67   3 2.67   2 2.69
                             6 3.07   6 3.07   6 3.07   1 3.08   1 3.08   1 3.08
 
  LATTYP: Found a trigonal (rhomboedric) cell.
 ALAT       =     7.5178785571
 COS(alpha) =     0.8316537982
  
  Lattice vectors:
  
 A1 = (   7.1945230000,  -2.1811320000,   0.0000000000)
 A2 = (   7.1945230000,   2.1811320000,   0.0000000000)
 A3 = (   6.5332790000,   0.0000000000,   3.7195120000)


Analysis of symmetry for initial positions (statically):
=====================================================================
 Subroutine PRICEL returns:
 Original cell was already a primitive cell.
 

 Routine SETGRP: Setting up the symmetry group for a 
 trigonal (rhombohedral) supercell.


 Subroutine GETGRP returns: Found 12 space group operations
 (whereof 12 operations were pure point group operations)
 out of a pool of 12 trial point group operations.


The static configuration has the point symmetry D_3d.


Analysis of symmetry for dynamics (positions and initial velocities):
=====================================================================
 Subroutine PRICEL returns:
 Original cell was already a primitive cell.
 

 Routine SETGRP: Setting up the symmetry group for a 
 trigonal (rhombohedral) supercell.


 Subroutine GETGRP returns: Found 12 space group operations
 (whereof 12 operations were pure point group operations)
 out of a pool of 12 trial point group operations.


The dynamic configuration has the point symmetry D_3d.


Analysis of structural, dynamic, and magnetic symmetry:
=====================================================================
 Subroutine PRICEL returns:
 Original cell was already a primitive cell.
 

 Routine SETGRP: Setting up the symmetry group for a 
 trigonal (rhombohedral) supercell.


 Subroutine GETGRP returns: Found 12 space group operations
 (whereof 12 operations were pure point group operations)
 out of a pool of 12 trial point group operations.


The overall configuration has the point symmetry D_3d.


 Subroutine INISYM returns: Found 12 space group operations
 (whereof 12 operations are pure point group operations),
 and found     1 'primitive' translations


----------------------------------------------------------------------------------------

                                     Primitive cell                                     

  volume of cell :     116.7347

  direct lattice vectors                    reciprocal lattice vectors
     7.194523000 -2.181132000  0.000000000     0.069497311 -0.229238762 -0.122071207
     7.194523000  2.181132000  0.000000000     0.069497311  0.229238762 -0.122071207
     6.533279000  0.000000000  3.719512000    -0.000000000  0.000000000  0.268852473

  length of vectors
     7.517878557  7.517878557  7.517878957     0.268852499  0.268852499  0.268852473

  position of ions in fractional coordinates (direct lattice)
     0.000000000  0.000000000  0.000000000
     0.376362000  0.376362000  0.376362000
     0.873918000  0.873918000  0.873918000
     0.623638000  0.623638000  0.623638000
     0.126082000  0.126082000  0.126082000
     0.500000000  0.500000000  0.500000000
     0.750442000  0.750442000  0.750442000
     0.249558000  0.249558000  0.249558000

  ion indices of the primitive-cell ions
   primitive index   ion index
                 1           1
                 2           2
                 3           3
                 4           4
                 5           5
                 6           6
                 7           7
                 8           8

----------------------------------------------------------------------------------------

 
 
 KPOINTS: pymatgen with grid density = 1088 / numb

Automatic generation of k-mesh.
 Grid dimensions read from file:
 generate k-points for:    5    5    5

 Generating k-lattice:

  Cartesian coordinates                     Fractional coordinates (reciprocal lattice)
     0.013899462 -0.045847752 -0.024414241     0.200000000 -0.000000000  0.000000000
     0.013899462  0.045847752 -0.024414241    -0.000000000  0.200000000  0.000000000
    -0.000000000  0.000000000  0.053770495     0.000000000  0.000000000  0.200000000

  Length of vectors
     0.053770500  0.053770500  0.053770495

  Shift w.r.t. Gamma in fractional coordinates (k-lattice)
     0.000000000  0.000000000  0.000000000

 TETIRR: Found     65 inequivalent tetrahedra from      750
 
 Subroutine IBZKPT returns following result:
 ===========================================
 
 Found     19 irreducible k-points:
 
 Following reciprocal coordinates:
            Coordinates               Weight
  0.000000  0.000000  0.000000      1.000000
  0.200000  0.000000  0.000000      6.000000
  0.400000  0.000000  0.000000      6.000000
  0.200000  0.200000  0.000000      6.000000
  0.400000  0.200000  0.000000     12.000000
 -0.400000  0.200000  0.000000     12.000000
 -0.200000  0.200000  0.000000      6.000000
  0.400000  0.400000  0.000000      6.000000
 -0.400000  0.400000  0.000000      6.000000
  0.200000  0.200000  0.200000      2.000000
  0.400000  0.200000  0.200000      6.000000
 -0.400000  0.200000  0.200000      6.000000
 -0.200000  0.200000  0.200000      6.000000
  0.400000  0.400000  0.200000      6.000000
 -0.400000  0.400000  0.200000     12.000000
 -0.200000  0.400000  0.200000     12.000000
 -0.400000 -0.400000  0.200000      6.000000
  0.400000  0.400000  0.400000      2.000000
 -0.400000  0.400000  0.400000      6.000000
 
 Following cartesian coordinates:
            Coordinates               Weight
  0.000000  0.000000  0.000000      1.000000
  0.013899 -0.045848 -0.024414      6.000000
  0.027799 -0.091696 -0.048828      6.000000
  0.027799  0.000000 -0.048828      6.000000
  0.041698 -0.045848 -0.073243     12.000000
 -0.013899  0.137543  0.024414     12.000000
  0.000000  0.091696  0.000000      6.000000
  0.055598  0.000000 -0.097657      6.000000
  0.000000  0.183391  0.000000      6.000000
  0.027799  0.000000  0.004942      2.000000
  0.041698 -0.045848 -0.019472      6.000000
 -0.013899  0.137543  0.078185      6.000000
  0.000000  0.091696  0.053770      6.000000
  0.055598  0.000000 -0.043886      6.000000
  0.000000  0.183391  0.053770     12.000000
  0.013899  0.137543  0.029356     12.000000
 -0.055598  0.000000  0.151427      6.000000
  0.055598  0.000000  0.009884      2.000000
  0.000000  0.183391  0.107541      6.000000
 


--------------------------------------------------------------------------------------------------------




 Dimension of arrays:
   k-points           NKPTS =     19   k-points in BZ     NKDIM =     19   number of bands    NBANDS=     88
   number of dos      NEDOS =    301   number of ions     NIONS =      8
   non local maximal  LDIM  =      6   non local SUM 2l+1 LMDIM =     18
   total plane-waves  NPLWV = 175616
   max r-space proj   IRMAX =  15998   max aug-charges    IRDMAX=  67375
   dimension x,y,z NGX =    56 NGY =   56 NGZ =   56
   dimension x,y,z NGXF=   112 NGYF=  112 NGZF=  112
   support grid    NGXF=   112 NGYF=  112 NGZF=  112
   ions per type =               1   4   1   2
   NGX,Y,Z   is equivalent  to a cutoff of  12.38, 12.38, 12.38 a.u.
   NGXF,Y,Z  is equivalent  to a cutoff of  24.77, 24.77, 24.77 a.u.

 SYSTEM =  unknown system                          
 POSCAR =  Cr1 Cu4 Ni1 Sn2                         

 Startparameter for this run:
   NWRITE =      2    write-flag & timer
   PREC   = accura    normal or accurate (medium, high low for compatibility)
   ISTART =      0    job   : 0-new  1-cont  2-samecut
   ICHARG =      2    charge: 1-file 2-atom 10-const
   ISPIN  =      2    spin polarized calculation?
   LNONCOLLINEAR =      F non collinear calculations
   LSORBIT =      F    spin-orbit coupling
   INIWAV =      1    electr: 0-lowe 1-rand  2-diag
   LASPH  =      T    aspherical Exc in radial PAW
 Electronic Relaxation 1
   ENCUT  =  520.0 eV  38.22 Ry    6.18 a.u.  13.98 13.98 13.98*2*pi/ulx,y,z
   ENINI  =  520.0     initial cutoff
   ENAUG  =  758.2 eV  augmentation charge cutoff
   NELM   =    100;   NELMIN=  2; NELMDL= -5     # of ELM steps 
   EDIFF  = 0.4E-03   stopping-criterion for ELM
   LREAL  =      T    real-space projection
   NLSPLINE    = F    spline interpolate recip. space projectors
   LCOMPAT=      F    compatible to vasp.4.4
   GGA_COMPAT  = T    GGA compatible to vasp.4.4-vasp.4.6
   LMAXPAW     = -100 max onsite density
   LMAXMIX     =    4 max onsite mixed and CHGCAR
   VOSKOWN=      0    Vosko Wilk Nusair interpolation
   ROPT   =   -0.00025  -0.00025  -0.00025  -0.00025
 Ionic relaxation
   EDIFFG = 0.4E-02   stopping-criterion for IOM
   NSW    =     99    number of steps for IOM
   NBLOCK =      1;   KBLOCK =     99    inner block; outer block 
   IBRION =      2    ionic relax: 0-MD 1-quasi-New 2-CG
   NFREE  =      1    steps in history (QN), initial steepest desc. (CG)
   ISIF   =      3    stress and relaxation
   IWAVPR =     11    prediction:  0-non 1-charg 2-wave 3-comb
   ISYM   =      2    0-nonsym 1-usesym 2-fastsym
   LCORR  =      T    Harris-Foulkes like correction to forces

   POTIM  = 0.5000    time-step for ionic-motion
   TEIN   =    0.0    initial temperature
   TEBEG  =    0.0;   TEEND  =   0.0 temperature during run
   SMASS  =  -3.00    Nose mass-parameter (am)
   estimated Nose-frequenzy (Omega)   =  0.10E-29 period in steps = 0.13E+47 mass=  -0.129E-26a.u.
   SCALEE = 1.0000    scale energy and forces
   NPACO  =    256;   APACO  = 10.0  distance and # of slots for P.C.
   PSTRESS=    0.0 pullay stress

  Mass of Ions in am
   POMASS =  52.00 63.55 58.69118.71
  Ionic Valenz
   ZVAL   =  12.00 17.00 16.00 14.00
  Atomic Wigner-Seitz radii
   RWIGS  =  -1.00 -1.00 -1.00 -1.00
  virtual crystal weights 
   VCA    =   1.00  1.00  1.00  1.00
   NELECT =     124.0000    total number of electrons
   NUPDOWN=      -1.0000    fix difference up-down

 DOS related values:
   EMIN   =  10.00;   EMAX   =-10.00  energy-range for DOS
   EFERMI =   0.00;   METHOD = LEGACY      
   ISMEAR =    -5;   SIGMA  =   0.05  broadening in eV -4-tet -1-fermi 0-gaus

 Electronic relaxation 2 (details)
   IALGO  =     68    algorithm
   LDIAG  =      T    sub-space diagonalisation (order eigenvalues)
   LSUBROT=      F    optimize rotation matrix (better conditioning)
   TURBO    =      0    0=normal 1=particle mesh
   IRESTART =      0    0=no restart 2=restart with 2 vectors
   NREBOOT  =      0    no. of reboots
   NMIN     =      0    reboot dimension
   EREF     =   0.00    reference energy to select bands
   IMIX   =      4    mixing-type and parameters
     AMIX     =   0.40;   BMIX     =  1.00
     AMIX_MAG =   1.60;   BMIX_MAG =  1.00
     AMIN     =   0.10
     WC   =   100.;   INIMIX=   1;  MIXPRE=   1;  MAXMIX= -45

 Intra band minimization:
   WEIMIN = 0.0010     energy-eigenvalue tresh-hold
   EBREAK =  0.11E-05  absolut break condition
   DEPER  =   0.30     relativ break condition  

   TIME   =   0.40     timestep for ELM

  volume/ion in A,a.u.               =      14.59        98.47
  Fermi-wavevector in a.u.,A,eV,Ry     =   1.670381  3.156562 37.962583  2.790171
  Thomas-Fermi vector in A             =   2.755888
 
 Write flags
   LWAVE        =      F    write WAVECAR
   LDOWNSAMPLE  =      F    k-point downsampling of WAVECAR
   LCHARG       =      T    write CHGCAR
   LVTOT        =      F    write LOCPOT, total local potential
   LVHAR        =      F    write LOCPOT, Hartree potential only
   WRT_POTENTIAL= false  ! write potential to hdf5 file
   LELF         =      F    write electronic localiz. function (ELF)
   LORBIT       =     11    0 simple, 1 ext, 2 COOP (PROOUT), +10 PAW based schemes


 Dipole corrections
   LMONO      =      F    monopole corrections only (constant potential shift)
   LDIPOL     =      F    correct potential (dipole corrections)
   IDIPOL     =      0    1-x, 2-y, 3-z, 4-all directions 
   EPSILON    =  1.0000000 bulk dielectric constant
   LVACPOTAV  =      F  vacuum potentials using an averaging scheme for the charge density
   VACPOTFLAT =  0.1000000 required flatness to determine vacuum potential
 Exchange correlation treatment:
   GGA     = PE    functional components
   XC_C    = 1    coefficients multiplying the functional components
   LIBXC   =     F    Libxc                    
   VOSKOWN =     0    Vosko Wilk Nusair interpolation
   LHFCALC =     F    Hartree Fock is set to
   LHFONE  =     F    Hartree Fock one center treatment
   AEXX    =    0.0000 exact exchange contribution

 Parameters of functionals:
   PE:
     No parameter
 
 Van der Waals corrections
   IVDW    =     0    specifies the selected vdW correction

 Linear response parameters
   LEPSILON=     F    determine dielectric tensor
   LRPA    =     F    only Hartree local field effects (RPA)
   LNABLA  =     F    use nabla operator in PAW spheres
   LVEL    =     F    velocity operator in full k-point grid
   CSHIFT  =0.1000    complex shift for real part using Kramers Kronig
   OMEGAMAX=  -1.0    maximum frequency
   DEG_THRESHOLD= 0.2000000E-02 threshold for treating states as degnerate
   RTIME   =   -0.100 relaxation time in fs
  (WPLASMAI=    0.000 imaginary part of plasma frequency in eV, 0.658/RTIME)
   DFIELD  = 0.0000000 0.0000000 0.0000000 field for delta impulse in time
 
  Optional k-point grid parameters
   LKPOINTS_OPT  =     F    use optional k-point grid
   KPOINTS_OPT_MODE=     1    mode for optional k-point grid
 
 Orbital magnetization related:
   ORBITALMAG=     F  switch on orbital magnetization
   LCHIMAG   =     F  perturbation theory with respect to B field
   DQ        =  0.001000  dq finite difference perturbation B field
   LLRAUG    =     F  two centre corrections for induced B field
   LBONE     =     F  B-component reconstruction in AE one-centre
   LVGVCALC  =     T  calculate vGv susceptibility
   LVGVAPPL  =     F  apply vGv susceptibility instead of pGv for G=0

 Random number generation:
   RANDOM_GENERATOR = DEFAULT
   PCG_SEED         = not used


--------------------------------------------------------------------------------------------------------


 conjugate gradient relaxation of ions
 charge density and potential will be updated during run
 spin polarized calculation
 RMM-DIIS sequential band-by-band and
  variant of blocked Davidson during initial phase
 perform sub-space diagonalisation
    before iterative eigenvector-optimisation
 modified Broyden-mixing scheme, WC =      100.0
 initial mixing is a Kerker type mixing with AMIX =  0.4000 and BMIX =      1.0000
 Hartree-type preconditioning will be used
 using additional bands            26
 real space projection scheme for non local part
 use partial core corrections
 calculate Harris-corrections to forces 
   (improved forces if not selfconsistent)
 use gradient corrections 
 use of overlap-Matrix (Vanderbilt PP)
 Fermi weights with tetrahedron method with Bloechl corrections


--------------------------------------------------------------------------------------------------------


  energy-cutoff  :      520.00
  volume of cell :      116.73
      direct lattice vectors                 reciprocal lattice vectors
     7.194523000 -2.181132000  0.000000000     0.069497311 -0.229238762 -0.122071207
     7.194523000  2.181132000  0.000000000     0.069497311  0.229238762 -0.122071207
     6.533279000  0.000000000  3.719512000    -0.000000000  0.000000000  0.268852473

  length of vectors
     7.517878557  7.517878557  7.517878957     0.268852499  0.268852499  0.268852473


 
 k-points in units of 2pi/SCALE and weight: pymatgen with grid density = 1088 / numb
   0.00000000  0.00000000  0.00000000       0.008
   0.01389946 -0.04584775 -0.02441424       0.048
   0.02779892 -0.09169550 -0.04882848       0.048
   0.02779892 -0.00000000 -0.04882848       0.048
   0.04169839 -0.04584775 -0.07324272       0.096
  -0.01389946  0.13754326  0.02441424       0.096
   0.00000000  0.09169550  0.00000000       0.048
   0.05559785  0.00000000 -0.09765697       0.048
   0.00000000  0.18339101  0.00000000       0.048
   0.02779892 -0.00000000  0.00494201       0.016
   0.04169839 -0.04584775 -0.01947223       0.048
  -0.01389946  0.13754326  0.07818474       0.048
   0.00000000  0.09169550  0.05377049       0.048
   0.05559785  0.00000000 -0.04388647       0.048
   0.00000000  0.18339101  0.05377049       0.096
   0.01389946  0.13754326  0.02935625       0.096
  -0.05559785 -0.00000000  0.15142746       0.048
   0.05559785  0.00000000  0.00988402       0.016
   0.00000000  0.18339101  0.10754099       0.048
 
 k-points in reciprocal lattice and weights: pymatgen with grid density = 1088 / numb
   0.00000000  0.00000000  0.00000000       0.008
   0.20000000  0.00000000  0.00000000       0.048
   0.40000000  0.00000000  0.00000000       0.048
   0.20000000  0.20000000  0.00000000       0.048
   0.40000000  0.20000000  0.00000000       0.096
  -0.40000000  0.20000000  0.00000000       0.096
  -0.20000000  0.20000000  0.00000000       0.048
   0.40000000  0.40000000  0.00000000       0.048
  -0.40000000  0.40000000  0.00000000       0.048
   0.20000000  0.20000000  0.20000000       0.016
   0.40000000  0.20000000  0.20000000       0.048
  -0.40000000  0.20000000  0.20000000       0.048
  -0.20000000  0.20000000  0.20000000       0.048
   0.40000000  0.40000000  0.20000000       0.048
  -0.40000000  0.40000000  0.20000000       0.096
  -0.20000000  0.40000000  0.20000000       0.096
  -0.40000000 -0.40000000  0.20000000       0.048
   0.40000000  0.40000000  0.40000000       0.016
  -0.40000000  0.40000000  0.40000000       0.048
 
 position of ions in fractional coordinates (direct lattice) 
   0.00000000  0.00000000  0.00000000
   0.37636200  0.37636200  0.37636200
   0.87391800  0.87391800  0.87391800
   0.62363800  0.62363800  0.62363800
   0.12608200  0.12608200  0.12608200
   0.50000000  0.50000000  0.50000000
   0.75044200  0.75044200  0.75044200
   0.24955800  0.24955800  0.24955800
 
 position of ions in cartesian coordinates  (Angst):
   0.00000000  0.00000000  0.00000000
   7.87436808 -0.00000000  1.39988298
  18.28439642  0.00000000  3.25054849
  13.04795692 -0.00000000  2.31962902
   2.63792858 -0.00000000  0.46896351
  10.46116250  0.00000000  1.85975600
  15.70099142  0.00000000  2.79127802
   5.22133358 -0.00000000  0.92823398
 


--------------------------------------------------------------------------------------------------------


 k-point     1 :   0.0000 0.0000 0.0000  plane waves:    3093
 k-point     2 :   0.2000 0.0000 0.0000  plane waves:    3122
 k-point     3 :   0.4000 0.0000 0.0000  plane waves:    3148
 k-point     4 :   0.2000 0.2000 0.0000  plane waves:    3132
 k-point     5 :   0.4000 0.2000 0.0000  plane waves:    3152
 k-point     6 :  -0.4000 0.2000 0.0000  plane waves:    3143
 k-point     7 :  -0.2000 0.2000 0.0000  plane waves:    3146
 k-point     8 :   0.4000 0.4000 0.0000  plane waves:    3157
 k-point     9 :  -0.4000 0.4000 0.0000  plane waves:    3154
 k-point    10 :   0.2000 0.2000 0.2000  plane waves:    3131
 k-point    11 :   0.4000 0.2000 0.2000  plane waves:    3128
 k-point    12 :  -0.4000 0.2000 0.2000  plane waves:    3145
 k-point    13 :  -0.2000 0.2000 0.2000  plane waves:    3154
 k-point    14 :   0.4000 0.4000 0.2000  plane waves:    3146
 k-point    15 :  -0.4000 0.4000 0.2000  plane waves:    3155
 k-point    16 :  -0.2000 0.4000 0.2000  plane waves:    3143
 k-point    17 :  -0.4000-0.4000 0.2000  plane waves:    3155
 k-point    18 :   0.4000 0.4000 0.4000  plane waves:    3137
 k-point    19 :  -0.4000 0.4000 0.4000  plane waves:    3132

 maximum and minimum number of plane-waves per node :      3157     3093

 maximum number of plane-waves:      3157
 maximum index in each direction: 
   IXMAX=   14   IYMAX=   14   IZMAX=   13
   IXMIN=  -14   IYMIN=  -14   IZMIN=  -14


 serial   3D FFT for wavefunctions
 parallel 3D FFT for charge:
    minimum data exchange during FFTs selected (reduces bandwidth)


 total amount of memory used by VASP MPI-rank0   111920. kBytes
=======================================================================

   base      :      30000. kBytes
   nonlr-proj:      21596. kBytes
   fftplans  :       6720. kBytes
   grid      :      31259. kBytes
   one-center:        248. kBytes
   wavefun   :      22097. kBytes
 
     INWAV:  cpu time      0.0002: real time      0.0007
 Broyden mixing: mesh for mixing (old mesh)
   NGX = 27   NGY = 27   NGZ = 27
  (NGX  =112   NGY  =112   NGZ  =112)
  gives a total of  19683 points

 initial charge density was supplied:
 charge density of overlapping atoms calculated
 number of electron     124.0000000 magnetization      13.6000000
 keeping initial charge density in first step


--------------------------------------------------------------------------------------------------------


 Maximum index for non-local projection operator         15514
 Maximum index for augmentation-charges          8194 (set IRDMAX)


--------------------------------------------------------------------------------------------------------


 First call to EWALD:  gamma=   0.363
 Maximum number of real-space cells 3x 3x 3
 Maximum number of reciprocal cells 4x 4x 4

    FEWALD:  cpu time      0.0013: real time      0.0013


--------------------------------------- Ionic step        1  -------------------------------------------




--------------------------------------- Iteration      1(   1)  ---------------------------------------


    POTLOK:  cpu time      2.2928: real time      2.7931
    SETDIJ:  cpu time      0.7266: real time      0.7254
     EDDAV:  cpu time      3.3115: real time      3.3069
 BZINTS: Fermi energy:   29.993229;  124.000000 electrons
         Band energy: 0.176865E+03;  BLOECHL correction:   -0.389638
       DOS:  cpu time      0.0252: real time      0.0251
    --------------------------------------------
      LOOP:  cpu time      6.3562: real time      6.8504

 eigenvalue-minimisations  :  7632
 total energy-change (2. order) : 0.1826125E+04  (-0.6842550E+04)
 number of electron     124.0000000 magnetization      13.6000000
 augmentation part      124.0000000 magnetization      13.6000000

 Free energy of the ion-electron system (eV)
  ---------------------------------------------------
  alpha Z        PSCENC =       826.60186344
  Ewald energy   TEWEN  =    -16441.44888778
  -Hartree energ DENC   =     -7989.37681602
  -exchange      EXHF   =         0.00000000
  -V(xc)+E(xc)   XCENC  =       697.88432466
  PAW double counting   =     21273.75475424   -22133.60936895
  entropy T*S    EENTRO =         0.00000000
  eigenvalues    EBANDS =       176.86470613
  atomic energy  EATOM  =     25415.45474088
  Solvation  Ediel_sol  =         0.00000000
  ---------------------------------------------------
  free energy    TOTEN  =      1826.12531660 eV

  energy without entropy =     1826.12531660  energy(sigma->0) =     1826.12531660


--------------------------------------------------------------------------------------------------------




--------------------------------------- Iteration      1(   2)  ---------------------------------------


     EDDAV:  cpu time      2.4921: real time      2.4928
 BZINTS: Fermi energy:   13.684657;  124.000000 electrons
         Band energy:-0.143280E+04;  BLOECHL correction:   -0.128865
       DOS:  cpu time      0.0205: real time      0.0205
    --------------------------------------------
      LOOP:  cpu time      2.5126: real time      2.5134

 eigenvalue-minimisations  :  6688
 total energy-change (2. order) :-0.1609669E+04  (-0.1526303E+04)
 number of electron     124.0000000 magnetization      13.6000000
 augmentation part      124.0000000 magnetization      13.6000000

 Free energy of the ion-electron system (eV)
  ---------------------------------------------------
  alpha Z        PSCENC =       826.60186344
  Ewald energy   TEWEN  =    -16441.44888778
  -Hartree energ DENC   =     -7989.37681602
  -exchange      EXHF   =         0.00000000
  -V(xc)+E(xc)   XCENC  =       697.88432466
  PAW double counting   =     21273.75475424   -22133.60936895
  entropy T*S    EENTRO =         0.00000000
  eigenvalues    EBANDS =     -1432.80467816
  atomic energy  EATOM  =     25415.45474088
  Solvation  Ediel_sol  =         0.00000000
  ---------------------------------------------------
  free energy    TOTEN  =       216.45593231 eV

  energy without entropy =      216.45593231  energy(sigma->0) =      216.45593231


--------------------------------------------------------------------------------------------------------




--------------------------------------- Iteration      1(   3)  ---------------------------------------


     EDDAV:  cpu time      2.0777: real time      2.0773
 BZINTS: Fermi energy:   11.125852;  124.000000 electrons
         Band energy:-0.167342E+04;  BLOECHL correction:   -0.073924
       DOS:  cpu time      0.0134: real time      0.0133
    --------------------------------------------
      LOOP:  cpu time      2.0911: real time      2.0906

 eigenvalue-minimisations  :  6944
 total energy-change (2. order) :-0.2406155E+03  (-0.2239609E+03)
 number of electron     124.0000000 magnetization      13.6000000
 augmentation part      124.0000000 magnetization      13.6000000

 Free energy of the ion-electron system (eV)
  ---------------------------------------------------
  alpha Z        PSCENC =       826.60186344
  Ewald energy   TEWEN  =    -16441.44888778
  -Hartree energ DENC   =     -7989.37681602
  -exchange      EXHF   =         0.00000000
  -V(xc)+E(xc)   XCENC  =       697.88432466
  PAW double counting   =     21273.75475424   -22133.60936895
  entropy T*S    EENTRO =         0.00000000
  eigenvalues    EBANDS =     -1673.42013285
  atomic energy  EATOM  =     25415.45474088
  Solvation  Ediel_sol  =         0.00000000
  ---------------------------------------------------
  free energy    TOTEN  =       -24.15952239 eV

  energy without entropy =      -24.15952239  energy(sigma->0) =      -24.15952239


--------------------------------------------------------------------------------------------------------




--------------------------------------- Iteration      1(   4)  ---------------------------------------


     EDDAV:  cpu time      2.1514: real time      2.1513
 BZINTS: Fermi energy:   11.025018;  124.000000 electrons
         Band energy:-0.168803E+04;  BLOECHL correction:   -0.063506
       DOS:  cpu time      0.0123: real time      0.0123
    --------------------------------------------
      LOOP:  cpu time      2.1637: real time      2.1636

 eigenvalue-minimisations  :  7416
 total energy-change (2. order) :-0.1461133E+02  (-0.1445261E+02)
 number of electron     124.0000000 magnetization      13.6000000
 augmentation part      124.0000000 magnetization      13.6000000

 Free energy of the ion-electron system (eV)
  ---------------------------------------------------
  alpha Z        PSCENC =       826.60186344
  Ewald energy   TEWEN  =    -16441.44888778
  -Hartree energ DENC   =     -7989.37681602
  -exchange      EXHF   =         0.00000000
  -V(xc)+E(xc)   XCENC  =       697.88432466
  PAW double counting   =     21273.75475424   -22133.60936895
  entropy T*S    EENTRO =         0.00000000
  eigenvalues    EBANDS =     -1688.03146697
  atomic energy  EATOM  =     25415.45474088
  Solvation  Ediel_sol  =         0.00000000
  ---------------------------------------------------
  free energy    TOTEN  =       -38.77085650 eV

  energy without entropy =      -38.77085650  energy(sigma->0) =      -38.77085650


--------------------------------------------------------------------------------------------------------




--------------------------------------- Iteration      1(   5)  ---------------------------------------


     EDDAV:  cpu time      2.4374: real time      2.4369
 BZINTS: Fermi energy:   11.021154;  124.000000 electrons
         Band energy:-0.168843E+04;  BLOECHL correction:   -0.063595
       DOS:  cpu time      0.0126: real time      0.0126
    CHARGE:  cpu time      0.0990: real time      0.0989
    MIXING:  cpu time      0.0032: real time      0.0032
    --------------------------------------------
      LOOP:  cpu time      2.5521: real time      2.5516

 eigenvalue-minimisations  :  8984
 total energy-change (2. order) :-0.3992445E+00  (-0.3975338E+00)
 number of electron     123.9999948 magnetization       9.4243822
 augmentation part       70.1105324 magnetization       6.8032573

 Broyden mixing:
  rms(total) = 0.33998E+01    rms(broyden)= 0.33993E+01
  rms(prec ) = 0.49665E+01
  weight for this iteration     100.00

 Free energy of the ion-electron system (eV)
  ---------------------------------------------------
  alpha Z        PSCENC =       826.60186344
  Ewald energy   TEWEN  =    -16441.44888778
  -Hartree energ DENC   =     -7989.37681602
  -exchange      EXHF   =         0.00000000
  -V(xc)+E(xc)   XCENC  =       697.88432466
  PAW double counting   =     21273.75475424   -22133.60936895
  entropy T*S    EENTRO =         0.00000000
  eigenvalues    EBANDS =     -1688.43071151
  atomic energy  EATOM  =     25415.45474088
  Solvation  Ediel_sol  =         0.00000000
  ---------------------------------------------------
  free energy    TOTEN  =       -39.17010104 eV

  energy without entropy =      -39.17010104  energy(sigma->0) =      -39.17010104


--------------------------------------------------------------------------------------------------------




--------------------------------------- Iteration      1(   6)  ---------------------------------------


    POTLOK:  cpu time      0.0316: real time      0.0341
    SETDIJ:  cpu time      0.3920: real time      0.3918
    EDDIAG:  cpu time      0.1438: real time      0.1438
  RMM-DIIS:  cpu time      0.8632: real time      0.8725
    ORTHCH:  cpu time      0.0448: real time      0.0447
 BZINTS: Fermi energy:    9.643980;  124.000000 electrons
         Band energy:-0.213119E+04;  BLOECHL correction:   -0.193763
       DOS:  cpu time      0.0120: real time      0.0120
    CHARGE:  cpu time      0.0824: real time      0.0824
    MIXING:  cpu time      0.0034: real time      0.0034
    --------------------------------------------
      LOOP:  cpu time      1.5733: real time      1.5846

 eigenvalue-minimisations  :  6917
 total energy-change (2. order) :-0.3214592E+02  (-0.1251736E+02)
 number of electron     123.9999941 magnetization       8.0622153
 augmentation part       75.3325931 magnetization       6.9214939

 Broyden mixing:
  rms(total) = 0.88254E+01    rms(broyden)= 0.88252E+01
  rms(prec ) = 0.10833E+02
  weight for this iteration     100.00

 eigenvalues of (default mixing * dielectric matrix)
  average eigenvalue GAMMA=   0.0866
  0.0866

 Free energy of the ion-electron system (eV)
  ---------------------------------------------------
  alpha Z        PSCENC =       826.60186344
  Ewald energy   TEWEN  =    -16441.44888778
  -Hartree energ DENC   =     -7587.12625198
  -exchange      EXHF   =         0.00000000
  -V(xc)+E(xc)   XCENC  =       681.74350826
  PAW double counting   =     21427.85011044   -22263.20156184
  entropy T*S    EENTRO =         0.00000000
  eigenvalues    EBANDS =     -2131.18954487
  atomic energy  EATOM  =     25415.45474088
  Solvation  Ediel_sol  =         0.00000000
  ---------------------------------------------------
  free energy    TOTEN  =       -71.31602345 eV

  energy without entropy =      -71.31602345  energy(sigma->0) =      -71.31602345


--------------------------------------------------------------------------------------------------------




--------------------------------------- Iteration      1(   7)  ---------------------------------------


    POTLOK:  cpu time      0.0088: real time      0.0097
    SETDIJ:  cpu time      0.3788: real time      0.3786
    EDDIAG:  cpu time      0.1416: real time      0.1416
  RMM-DIIS:  cpu time      0.8395: real time      0.8388
    ORTHCH:  cpu time      0.0468: real time      0.0467
 BZINTS: Fermi energy:    8.458212;  124.000000 electrons
         Band energy:-0.202044E+04;  BLOECHL correction:   -0.187849
       DOS:  cpu time      0.0146: real time      0.0146
    CHARGE:  cpu time      0.0829: real time      0.0829
    MIXING:  cpu time      0.0033: real time      0.0033
    --------------------------------------------
      LOOP:  cpu time      1.5164: real time      1.5162

 eigenvalue-minimisations  :  7252
 total energy-change (2. order) : 0.2355452E+02  (-0.1575250E+01)
 number of electron     123.9999942 magnetization       7.0772866
 augmentation part       75.8436529 magnetization       5.3613096

 Broyden mixing:
  rms(total) = 0.39029E+01    rms(broyden)= 0.39029E+01
  rms(prec ) = 0.49691E+01
  weight for this iteration     100.00

 eigenvalues of (default mixing * dielectric matrix)
  average eigenvalue GAMMA=   0.4253
  0.4253  0.4253

 Free energy of the ion-electron system (eV)
  ---------------------------------------------------
  alpha Z        PSCENC =       826.60186344
  Ewald energy   TEWEN  =    -16441.44888778
  -Hartree energ DENC   =     -7658.73673302
  -exchange      EXHF   =         0.00000000
  -V(xc)+E(xc)   XCENC  =       682.79700501
  PAW double counting   =     21815.58383956   -22667.57612248
  entropy T*S    EENTRO =         0.00000000
  eigenvalues    EBANDS =     -2020.43721287
  atomic energy  EATOM  =     25415.45474088
  Solvation  Ediel_sol  =         0.00000000
  ---------------------------------------------------
  free energy    TOTEN  =       -47.76150725 eV

  energy without entropy =      -47.76150725  energy(sigma->0) =      -47.76150725


--------------------------------------------------------------------------------------------------------




--------------------------------------- Iteration      1(   8)  ---------------------------------------


    POTLOK:  cpu time      0.0086: real time      0.0096
    SETDIJ:  cpu time      0.3776: real time      0.3774
    EDDIAG:  cpu time      0.1421: real time      0.1421
  RMM-DIIS:  cpu time      0.8133: real time      0.8127
    ORTHCH:  cpu time      0.0447: real time      0.0446
 BZINTS: Fermi energy:    9.645822;  124.000000 electrons
         Band energy:-0.193562E+04;  BLOECHL correction:   -0.112433
       DOS:  cpu time      0.0125: real time      0.0125
    CHARGE:  cpu time      0.0861: real time      0.0861
    MIXING:  cpu time      0.0043: real time      0.0043
    --------------------------------------------
      LOOP:  cpu time      1.4893: real time      1.4893

 eigenvalue-minimisations  :  7126
 total energy-change (2. order) : 0.7067912E+01  (-0.1499529E+01)
 number of electron     123.9999943 magnetization       6.1177149
 augmentation part       74.0650415 magnetization       4.8465342

 Broyden mixing:
  rms(total) = 0.29592E+01    rms(broyden)= 0.29592E+01
  rms(prec ) = 0.45501E+01
  weight for this iteration     100.00

 eigenvalues of (default mixing * dielectric matrix)
  average eigenvalue GAMMA=   0.4624
  0.5657  0.5657  0.2557

 Free energy of the ion-electron system (eV)
  ---------------------------------------------------
  alpha Z        PSCENC =       826.60186344
  Ewald energy   TEWEN  =    -16441.44888778
  -Hartree energ DENC   =     -7728.07845715
  -exchange      EXHF   =         0.00000000
  -V(xc)+E(xc)   XCENC  =       686.02374062
  PAW double counting   =     22088.14992143   -22951.77491081
  entropy T*S    EENTRO =         0.00000000
  eigenvalues    EBANDS =     -1935.62160567
  atomic energy  EATOM  =     25415.45474088
  Solvation  Ediel_sol  =         0.00000000
  ---------------------------------------------------
  free energy    TOTEN  =       -40.69359504 eV

  energy without entropy =      -40.69359504  energy(sigma->0) =      -40.69359504


--------------------------------------------------------------------------------------------------------




--------------------------------------- Iteration      1(   9)  ---------------------------------------


    POTLOK:  cpu time      0.0094: real time      0.0114
    SETDIJ:  cpu time      0.3814: real time      0.3811
    EDDIAG:  cpu time      0.1429: real time      0.1428
  RMM-DIIS:  cpu time      0.7938: real time      0.7930
    ORTHCH:  cpu time      0.0447: real time      0.0446
 BZINTS: Fermi energy:    8.906668;  124.000000 electrons
         Band energy:-0.189676E+04;  BLOECHL correction:   -0.165997
       DOS:  cpu time      0.0123: real time      0.0123
    CHARGE:  cpu time      0.0817: real time      0.0816
    MIXING:  cpu time      0.0035: real time      0.0035
    --------------------------------------------
      LOOP:  cpu time      1.4696: real time      1.4704

 eigenvalue-minimisations  :  6876
 total energy-change (2. order) : 0.4175249E+01  (-0.2625042E+00)
 number of electron     123.9999944 magnetization       5.0043931
 augmentation part       74.1790413 magnetization       3.2779371

 Broyden mixing:
  rms(total) = 0.95601E+00    rms(broyden)= 0.95593E+00
  rms(prec ) = 0.10551E+01
  weight for this iteration     100.00

 eigenvalues of (default mixing * dielectric matrix)
  average eigenvalue GAMMA=   0.6080
  1.0071  0.5875  0.5875  0.2500

 Free energy of the ion-electron system (eV)
  ---------------------------------------------------
  alpha Z        PSCENC =       826.60186344
  Ewald energy   TEWEN  =    -16441.44888778
  -Hartree energ DENC   =     -7757.27353044
  -exchange      EXHF   =         0.00000000
  -V(xc)+E(xc)   XCENC  =       686.17783215
  PAW double counting   =     22214.74339754   -23084.01514507
  entropy T*S    EENTRO =         0.00000000
  eigenvalues    EBANDS =     -1896.75861679
  atomic energy  EATOM  =     25415.45474088
  Solvation  Ediel_sol  =         0.00000000
  ---------------------------------------------------
  free energy    TOTEN  =       -36.51834607 eV

  energy without entropy =      -36.51834607  energy(sigma->0) =      -36.51834607


--------------------------------------------------------------------------------------------------------




--------------------------------------- Iteration      1(  10)  ---------------------------------------


    POTLOK:  cpu time      0.0086: real time      0.0098
    SETDIJ:  cpu time      0.4146: real time      0.4142
    EDDIAG:  cpu time      0.1442: real time      0.1441
  RMM-DIIS:  cpu time      0.7967: real time      0.7960
    ORTHCH:  cpu time      0.0446: real time      0.0446
 BZINTS: Fermi energy:    8.883111;  124.000000 electrons
         Band energy:-0.187343E+04;  BLOECHL correction:   -0.186073
       DOS:  cpu time      0.0122: real time      0.0122
    CHARGE:  cpu time      0.0808: real time      0.0807
    MIXING:  cpu time      0.0036: real time      0.0036
    --------------------------------------------
      LOOP:  cpu time      1.5052: real time      1.5051

 eigenvalue-minimisations  :  6874
 total energy-change (2. order) :-0.3769704E+00  (-0.1359733E+00)
 number of electron     123.9999944 magnetization       3.7632123
 augmentation part       73.8767211 magnetization       2.3584572

 Broyden mixing:
  rms(total) = 0.73219E+00    rms(broyden)= 0.73217E+00
  rms(prec ) = 0.11779E+01
  weight for this iteration     100.00

 eigenvalues of (default mixing * dielectric matrix)
  average eigenvalue GAMMA=   0.6681
  1.4288  0.5308  0.5308  0.5967  0.2533

 Free energy of the ion-electron system (eV)
  ---------------------------------------------------
  alpha Z        PSCENC =       826.60186344
  Ewald energy   TEWEN  =    -16441.44888778
  -Hartree energ DENC   =     -7775.44616588
  -exchange      EXHF   =         0.00000000
  -V(xc)+E(xc)   XCENC  =       686.83511427
  PAW double counting   =     22477.95853190   -23353.41622882
  entropy T*S    EENTRO =         0.00000000
  eigenvalues    EBANDS =     -1873.43428448
  atomic energy  EATOM  =     25415.45474088
  Solvation  Ediel_sol  =         0.00000000
  ---------------------------------------------------
  free energy    TOTEN  =       -36.89531646 eV

  energy without entropy =      -36.89531646  energy(sigma->0) =      -36.89531646


--------------------------------------------------------------------------------------------------------




--------------------------------------- Iteration      1(  11)  ---------------------------------------


    POTLOK:  cpu time      0.0090: real time      0.0097
    SETDIJ:  cpu time      0.4094: real time      0.4088
    EDDIAG:  cpu time      0.1438: real time      0.1437
  RMM-DIIS:  cpu time      0.8285: real time      0.8278
    ORTHCH:  cpu time      0.0447: real time      0.0446
 BZINTS: Fermi energy:    9.114814;  124.000000 electrons
         Band energy:-0.188118E+04;  BLOECHL correction:   -0.136295
       DOS:  cpu time      0.0124: real time      0.0124
    CHARGE:  cpu time      0.0833: real time      0.0833
    MIXING:  cpu time      0.0037: real time      0.0037
    --------------------------------------------
      LOOP:  cpu time      1.5349: real time      1.5340

 eigenvalue-minimisations  :  7302
 total energy-change (2. order) : 0.1093446E+00  (-0.6252056E-01)
 number of electron     123.9999944 magnetization       3.3335141
 augmentation part       73.6653860 magnetization       1.9185299

 Broyden mixing:
  rms(total) = 0.64237E+00    rms(broyden)= 0.64227E+00
  rms(prec ) = 0.10429E+01
  weight for this iteration     100.00

 eigenvalues of (default mixing * dielectric matrix)
  average eigenvalue GAMMA=   0.6800
  1.7193  0.5969  0.5969  0.5965  0.2508  0.3194

 Free energy of the ion-electron system (eV)
  ---------------------------------------------------
  alpha Z        PSCENC =       826.60186344
  Ewald energy   TEWEN  =    -16441.44888778
  -Hartree energ DENC   =     -7764.98251288
  -exchange      EXHF   =         0.00000000
  -V(xc)+E(xc)   XCENC  =       686.41377661
  PAW double counting   =     22692.29965292   -23569.94244276
  entropy T*S    EENTRO =         0.00000000
  eigenvalues    EBANDS =     -1881.18216226
  atomic energy  EATOM  =     25415.45474088
  Solvation  Ediel_sol  =         0.00000000
  ---------------------------------------------------
  free energy    TOTEN  =       -36.78597182 eV

  energy without entropy =      -36.78597182  energy(sigma->0) =      -36.78597182


--------------------------------------------------------------------------------------------------------




--------------------------------------- Iteration      1(  12)  ---------------------------------------


    POTLOK:  cpu time      0.0078: real time      0.0257
    SETDIJ:  cpu time      0.3797: real time      0.3793
    EDDIAG:  cpu time      0.1418: real time      0.1418
  RMM-DIIS:  cpu time      0.8291: real time      0.8284
    ORTHCH:  cpu time      0.0450: real time      0.0449
 BZINTS: Fermi energy:    8.943556;  124.000000 electrons
         Band energy:-0.188135E+04;  BLOECHL correction:   -0.164482
       DOS:  cpu time      0.0126: real time      0.0126
    CHARGE:  cpu time      0.0880: real time      0.0880
    MIXING:  cpu time      0.0036: real time      0.0036
    --------------------------------------------
      LOOP:  cpu time      1.5077: real time      1.5242

 eigenvalue-minimisations  :  7119
 total energy-change (2. order) : 0.1656277E+00  (-0.1483415E-01)
 number of electron     123.9999944 magnetization       3.3778920
 augmentation part       73.8042388 magnetization       2.1222967

 Broyden mixing:
  rms(total) = 0.14570E+00    rms(broyden)= 0.14566E+00
  rms(prec ) = 0.19684E+00
  weight for this iteration     100.00

 eigenvalues of (default mixing * dielectric matrix)
  average eigenvalue GAMMA=   0.7280
  1.7185  1.0922  0.5845  0.5845  0.5424  0.2481  0.3260

 Free energy of the ion-electron system (eV)
  ---------------------------------------------------
  alpha Z        PSCENC =       826.60186344
  Ewald energy   TEWEN  =    -16441.44888778
  -Hartree energ DENC   =     -7761.65029954
  -exchange      EXHF   =         0.00000000
  -V(xc)+E(xc)   XCENC  =       686.27931139
  PAW double counting   =     22814.39446853   -23694.90135146
  entropy T*S    EENTRO =         0.00000000
  eigenvalues    EBANDS =     -1881.35018956
  atomic energy  EATOM  =     25415.45474088
  Solvation  Ediel_sol  =         0.00000000
  ---------------------------------------------------
  free energy    TOTEN  =       -36.62034410 eV

  energy without entropy =      -36.62034410  energy(sigma->0) =      -36.62034410


--------------------------------------------------------------------------------------------------------




--------------------------------------- Iteration      1(  13)  ---------------------------------------


    POTLOK:  cpu time      0.0107: real time      0.0121
    SETDIJ:  cpu time      0.3971: real time      0.3967
    EDDIAG:  cpu time      0.1419: real time      0.1418
  RMM-DIIS:  cpu time      0.7971: real time      0.7963
    ORTHCH:  cpu time      0.0448: real time      0.0446
 BZINTS: Fermi energy:    8.912611;  124.000000 electrons
         Band energy:-0.188306E+04;  BLOECHL correction:   -0.168012
       DOS:  cpu time      0.0121: real time      0.0121
    CHARGE:  cpu time      0.0808: real time      0.0808
    MIXING:  cpu time      0.0036: real time      0.0036
    --------------------------------------------
      LOOP:  cpu time      1.4881: real time      1.4880

 eigenvalue-minimisations  :  6990
 total energy-change (2. order) :-0.5671411E-02  (-0.1549963E-02)
 number of electron     123.9999944 magnetization       3.4290585
 augmentation part       73.8479053 magnetization       2.1685255

 Broyden mixing:
  rms(total) = 0.11686E+00    rms(broyden)= 0.11685E+00
  rms(prec ) = 0.18092E+00
  weight for this iteration     100.00

 eigenvalues of (default mixing * dielectric matrix)
  average eigenvalue GAMMA=   0.7240
  1.4754  1.4754  0.5853  0.5853  0.5337  0.5337  0.2495  0.3535

 Free energy of the ion-electron system (eV)
  ---------------------------------------------------
  alpha Z        PSCENC =       826.60186344
  Ewald energy   TEWEN  =    -16441.44888778
  -Hartree energ DENC   =     -7759.54606462
  -exchange      EXHF   =         0.00000000
  -V(xc)+E(xc)   XCENC  =       686.18574573
  PAW double counting   =     22831.26617803   -23712.08288255
  entropy T*S    EENTRO =         0.00000000
  eigenvalues    EBANDS =     -1883.05670864
  atomic energy  EATOM  =     25415.45474088
  Solvation  Ediel_sol  =         0.00000000
  ---------------------------------------------------
  free energy    TOTEN  =       -36.62601551 eV

  energy without entropy =      -36.62601551  energy(sigma->0) =      -36.62601551


--------------------------------------------------------------------------------------------------------




--------------------------------------- Iteration      1(  14)  ---------------------------------------


    POTLOK:  cpu time      0.0089: real time      0.0097
    SETDIJ:  cpu time      0.3817: real time      0.3813
    EDDIAG:  cpu time      0.1418: real time      0.1417
  RMM-DIIS:  cpu time      0.7775: real time      0.7769
    ORTHCH:  cpu time      0.0445: real time      0.0445
 BZINTS: Fermi energy:    8.914080;  124.000000 electrons
         Band energy:-0.188313E+04;  BLOECHL correction:   -0.167255
       DOS:  cpu time      0.0118: real time      0.0118
    CHARGE:  cpu time      0.0816: real time      0.0815
    MIXING:  cpu time      0.0039: real time      0.0039
    --------------------------------------------
      LOOP:  cpu time      1.4518: real time      1.4514

 eigenvalue-minimisations  :  6224
 total energy-change (2. order) : 0.1266412E-02  (-0.5792605E-03)
 number of electron     123.9999944 magnetization       3.4410779
 augmentation part       73.8454105 magnetization       2.1725276

 Broyden mixing:
  rms(total) = 0.67072E-01    rms(broyden)= 0.67068E-01
  rms(prec ) = 0.10788E+00
  weight for this iteration     100.00

 eigenvalues of (default mixing * dielectric matrix)
  average eigenvalue GAMMA=   0.8131
  1.7232  1.7232  0.6093  0.6093  0.7940  0.6977  0.5690  0.2492  0.3430

 Free energy of the ion-electron system (eV)
  ---------------------------------------------------
  alpha Z        PSCENC =       826.60186344
  Ewald energy   TEWEN  =    -16441.44888778
  -Hartree energ DENC   =     -7759.08994952
  -exchange      EXHF   =         0.00000000
  -V(xc)+E(xc)   XCENC  =       686.16376189
  PAW double counting   =     22848.66963435   -23729.84634854
  entropy T*S    EENTRO =         0.00000000
  eigenvalues    EBANDS =     -1883.12956382
  atomic energy  EATOM  =     25415.45474088
  Solvation  Ediel_sol  =         0.00000000
  ---------------------------------------------------
  free energy    TOTEN  =       -36.62474910 eV

  energy without entropy =      -36.62474910  energy(sigma->0) =      -36.62474910


--------------------------------------------------------------------------------------------------------




--------------------------------------- Iteration      1(  15)  ---------------------------------------


    POTLOK:  cpu time      0.0078: real time      0.0098
    SETDIJ:  cpu time      0.3808: real time      0.3803
    EDDIAG:  cpu time      0.1431: real time      0.1430
  RMM-DIIS:  cpu time      0.7349: real time      0.7342
    ORTHCH:  cpu time      0.0445: real time      0.0445
 BZINTS: Fermi energy:    8.924724;  124.000000 electrons
         Band energy:-0.188325E+04;  BLOECHL correction:   -0.164904
       DOS:  cpu time      0.0122: real time      0.0122
    CHARGE:  cpu time      0.0851: real time      0.0851
    MIXING:  cpu time      0.0045: real time      0.0045
    --------------------------------------------
      LOOP:  cpu time      1.4131: real time      1.4135

 eigenvalue-minimisations  :  5780
 total energy-change (2. order) : 0.1945002E-02  (-0.3368668E-03)
 number of electron     123.9999944 magnetization       3.4387052
 augmentation part       73.8342410 magnetization       2.1647325

 Broyden mixing:
  rms(total) = 0.28604E-01    rms(broyden)= 0.28594E-01
  rms(prec ) = 0.35726E-01
  weight for this iteration     100.00

 eigenvalues of (default mixing * dielectric matrix)
  average eigenvalue GAMMA=   0.7995
  2.1026  1.3263  1.0647  0.6076  0.6076  0.6328  0.6328  0.2492  0.3420  0.4297

 Free energy of the ion-electron system (eV)
  ---------------------------------------------------
  alpha Z        PSCENC =       826.60186344
  Ewald energy   TEWEN  =    -16441.44888778
  -Hartree energ DENC   =     -7758.58771014
  -exchange      EXHF   =         0.00000000
  -V(xc)+E(xc)   XCENC  =       686.14817277
  PAW double counting   =     22869.47688724   -23751.02262858
  entropy T*S    EENTRO =         0.00000000
  eigenvalues    EBANDS =     -1883.24524193
  atomic energy  EATOM  =     25415.45474088
  Solvation  Ediel_sol  =         0.00000000
  ---------------------------------------------------
[...]
     38       5.0923      1.00000
     39       5.1292      1.00000
     40       5.2623      1.00000
     41       5.4635      1.00000
     42       5.6195      1.00000
     43       5.6273      1.00000
     44       5.6419      1.00000
     45       5.7259      1.00000
     46       5.7328      1.00000
     47       5.8037      1.00000
     48       5.8646      1.00000
     49       5.9258      1.00000
     50       6.1920      1.00000
     51       6.5334      1.00000
     52       6.6063      1.00000
     53       6.7938      1.00000
     54       7.1131      1.00000
     55       7.6662      1.00000
     56       7.7815      1.00000
     57       7.7859      1.00000
     58       8.4328      1.00000
     59       8.6323      1.00000
     60       9.0159      0.68705
     61       9.4158     -0.10332
     62       9.7176      0.00000
     63      10.6742      0.00000
     64      10.7844      0.00000
     65      11.0775      0.00000
     66      11.5212      0.00000
     67      11.6866      0.00000
     68      11.8672      0.00000
     69      12.8237      0.00000
     70      13.5296      0.00000
     71      13.9656      0.00000
     72      14.2292      0.00000
     73      14.7147      0.00000
     74      14.7920      0.00000
     75      14.9341      0.00000
     76      16.2530      0.00000
     77      16.7262      0.00000
     78      17.0653      0.00000
     79      18.3201      0.00000
     80      19.0100      0.00000
     81      19.3618      0.00000
     82      19.6741      0.00000
     83      20.3319      0.00000
     84      20.5384      0.00000
     85      20.5574      0.00000
     86      21.0455      0.00000
     87      21.7481      0.00000
     88      23.4641      0.00000


--------------------------------------------------------------------------------------------------------


 soft charge-density along one line, spin component            1
         0         1         2         3         4         5         6         7         8         9
 total charge-density along one line
 
 soft charge-density along one line, spin component            2
         0         1         2         3         4         5         6         7         8         9
 total charge-density along one line
 
 pseudopotential strength for first ion, spin component:            1
-35.198  -0.000  -0.000   7.974   0.000   0.000  -0.000  -0.000
 -0.000 -35.199  -0.007   0.000   7.975   0.004  -0.000  -0.000
 -0.000  -0.007 -35.236   0.000   0.004   7.994  -0.000  -0.000
  7.974   0.000   0.000   5.087  -0.000  -0.000   0.000   0.000
  0.000   7.975   0.004  -0.000   5.087  -0.001   0.000   0.000
  0.000   0.004   7.994  -0.000  -0.001   5.080   0.000   0.000
 -0.000  -0.000  -0.000   0.000   0.000   0.000  -1.950   0.010
 -0.000  -0.000  -0.000   0.000   0.000   0.000   0.010  -1.907
  0.000  -0.000   0.000  -0.000   0.000  -0.000   0.000  -0.000
 -0.000  -0.000  -0.000   0.000   0.000   0.000  -0.000  -0.000
  0.000   0.000  -0.000  -0.000  -0.000   0.000  -0.000   0.000
 -0.000  -0.000  -0.000   0.000   0.000   0.000  -2.418   0.010
 -0.000  -0.000  -0.000   0.000   0.000   0.000   0.010  -2.375
  0.000  -0.000   0.000  -0.000   0.000  -0.000   0.000  -0.000
 -0.000  -0.000  -0.000   0.000   0.000   0.000  -0.000  -0.000
  0.000   0.000  -0.000  -0.000  -0.000   0.000  -0.000   0.000
  0.000   0.000   0.000  -0.000  -0.000  -0.000   0.000   0.000
  0.000   0.000   0.000   0.000   0.000   0.000   0.000   0.000
 pseudopotential strength for first ion, spin component:            2
-33.309  -0.000  -0.000   6.964   0.000   0.000  -0.000  -0.000
 -0.000 -33.309  -0.004   0.000   6.964   0.002  -0.000  -0.000
 -0.000  -0.004 -33.328   0.000   0.002   6.972  -0.000  -0.000
  6.964   0.000   0.000   5.504  -0.000  -0.000   0.000   0.000
  0.000   6.964   0.002  -0.000   5.503  -0.001   0.000   0.000
  0.000   0.002   6.972  -0.000  -0.001   5.500   0.000   0.000
 -0.000  -0.000  -0.000   0.000   0.000   0.000  -0.124  -0.022
 -0.000  -0.000  -0.000   0.000   0.000   0.000  -0.022  -0.143
  0.000  -0.000   0.000  -0.000   0.000  -0.000   0.000  -0.000
 -0.000  -0.000  -0.000   0.000   0.000   0.000  -0.000  -0.000
  0.000   0.000  -0.000  -0.000  -0.000   0.000   0.000   0.000
 -0.000  -0.000  -0.000   0.000   0.000   0.000  -0.591  -0.022
 -0.000  -0.000  -0.000   0.000   0.000   0.000  -0.022  -0.611
  0.000  -0.000   0.000  -0.000   0.000  -0.000   0.000  -0.000
 -0.000  -0.000  -0.000   0.000   0.000   0.000  -0.000  -0.000
  0.000   0.000  -0.000  -0.000  -0.000   0.000   0.000   0.000
  0.000   0.000   0.000  -0.000  -0.000  -0.000   0.000   0.000
  0.000   0.000   0.000   0.000   0.000   0.000   0.000   0.000
 total augmentation occupancy for first ion, spin component:            1
  1.994  -0.000  -0.000  -0.025   0.000   0.000   0.000   0.000   0.000   0.000   0.000   0.000   0.000   0.000   0.000   0.000
 -0.000   1.994  -0.000   0.000  -0.025  -0.000   0.000   0.000   0.000   0.000   0.000   0.000   0.000   0.000   0.000   0.000
 -0.000  -0.000   1.993   0.000  -0.000  -0.026   0.000   0.000   0.000   0.000   0.000   0.000   0.000   0.000   0.000   0.000
 -0.025   0.000   0.000   0.102  -0.000  -0.000   0.000   0.000   0.000   0.000   0.000   0.000   0.000   0.000   0.000   0.000
  0.000  -0.025  -0.000  -0.000   0.102   0.001   0.000   0.000   0.000   0.000   0.000   0.000   0.000   0.000   0.000   0.000
  0.000  -0.000  -0.026  -0.000   0.001   0.107   0.000   0.000   0.000   0.000   0.000   0.000   0.000   0.000   0.000   0.000
  0.000   0.000   0.000   0.000   0.000   0.000   2.216  -0.200   0.000   0.000  -0.000  -1.365   0.101  -0.000   0.000   0.000
  0.000   0.000   0.000   0.000   0.000   0.000  -0.200   1.943  -0.000  -0.000   0.000   0.100  -1.234   0.000   0.000  -0.000
  0.000   0.000   0.000   0.000   0.000   0.000   0.000  -0.000   2.104   0.235   0.077  -0.000   0.000  -1.309  -0.119  -0.049
  0.000   0.000   0.000   0.000   0.000   0.000   0.000  -0.000   0.235   2.029   0.048   0.000   0.000  -0.119  -1.270  -0.018
  0.000   0.000   0.000   0.000   0.000   0.000  -0.000   0.000   0.077   0.048   1.831   0.000  -0.000  -0.049  -0.018  -1.161
  0.000   0.000   0.000   0.000   0.000   0.000  -1.365   0.100  -0.000   0.000   0.000   1.440  -0.002   0.000  -0.000   0.000
  0.000   0.000   0.000   0.000   0.000   0.000   0.101  -1.234   0.000   0.000  -0.000  -0.002   1.485   0.000  -0.000   0.000
  0.000   0.000   0.000   0.000   0.000   0.000  -0.000   0.000  -1.309  -0.119  -0.049   0.000   0.000   1.463  -0.007   0.029
  0.000   0.000   0.000   0.000   0.000   0.000   0.000   0.000  -0.119  -1.270  -0.018  -0.000  -0.000  -0.007   1.442  -0.014
  0.000   0.000   0.000   0.000   0.000   0.000   0.000  -0.000  -0.049  -0.018  -1.161   0.000   0.000   0.029  -0.014   1.434
  0.000   0.000   0.000   0.000   0.000   0.000   0.000   0.000   0.060  -0.040  -0.111   0.000   0.000  -0.019   0.012   0.034
  0.000   0.000   0.000   0.000   0.000   0.000   0.000   0.000  -0.017   0.011   0.032   0.000   0.000  -0.001   0.000   0.001
 total augmentation occupancy for first ion, spin component:            2
 -0.001   0.000   0.000  -0.005   0.000   0.000   0.000   0.000   0.000   0.000   0.000   0.000   0.000   0.000   0.000   0.000
  0.000  -0.001  -0.000   0.000  -0.005  -0.000   0.000   0.000   0.000   0.000   0.000   0.000   0.000   0.000   0.000   0.000
  0.000  -0.000  -0.001   0.000  -0.000  -0.005   0.000   0.000   0.000   0.000   0.000   0.000   0.000   0.000   0.000   0.000
 -0.005   0.000   0.000   0.013  -0.000  -0.000   0.000   0.000   0.000   0.000   0.000   0.000   0.000   0.000   0.000   0.000
  0.000  -0.005  -0.000  -0.000   0.013  -0.000   0.000   0.000   0.000   0.000   0.000   0.000   0.000   0.000   0.000   0.000
  0.000  -0.000  -0.005  -0.000  -0.000   0.013   0.000   0.000   0.000   0.000   0.000   0.000   0.000   0.000   0.000   0.000
  0.000   0.000   0.000   0.000   0.000   0.000   1.379  -0.179   0.000   0.000  -0.000  -0.280   0.108  -0.000  -0.000   0.000
  0.000   0.000   0.000   0.000   0.000   0.000  -0.179   1.118   0.000  -0.000   0.000   0.110  -0.088   0.000   0.000  -0.000
  0.000   0.000   0.000   0.000   0.000   0.000   0.000   0.000   1.269   0.215   0.063  -0.000   0.000  -0.189  -0.143  -0.033
  0.000   0.000   0.000   0.000   0.000   0.000   0.000  -0.000   0.215   1.211   0.045  -0.000   0.000  -0.142  -0.172  -0.028
  0.000   0.000   0.000   0.000   0.000   0.000  -0.000   0.000   0.063   0.045   1.029   0.000  -0.000  -0.033  -0.029  -0.042
  0.000   0.000   0.000   0.000   0.000   0.000  -0.280   0.110  -0.000  -0.000   0.000  -0.010  -0.068  -0.000   0.000  -0.000
  0.000   0.000   0.000   0.000   0.000   0.000   0.108  -0.088   0.000   0.000  -0.000  -0.068  -0.181   0.000   0.000   0.000
  0.000   0.000   0.000   0.000   0.000   0.000  -0.000   0.000  -0.189  -0.142  -0.033  -0.000   0.000  -0.102   0.105   0.008
  0.000   0.000   0.000   0.000   0.000   0.000  -0.000   0.000  -0.143  -0.172  -0.029   0.000   0.000   0.105  -0.085   0.021
  0.000   0.000   0.000   0.000   0.000   0.000   0.000  -0.000  -0.033  -0.028  -0.042  -0.000   0.000   0.008   0.021  -0.190
  0.000   0.000   0.000   0.000   0.000   0.000  -0.000  -0.000   0.062  -0.041  -0.115   0.000   0.000  -0.013   0.008   0.024
  0.000   0.000   0.000   0.000   0.000   0.000   0.000   0.000  -0.020   0.013   0.036  -0.000   0.000   0.003  -0.002  -0.006


------------------------ aborting loop because EDIFF is reached ----------------------------------------





 total charge

# of ion       s       p       d       tot
------------------------------------------
    1        0.259   6.200   4.178  10.637
    2        0.289   6.194   8.883  15.367
    3        0.275   6.187   8.889  15.351
    4        0.289   6.194   8.883  15.367
    5        0.275   6.187   8.889  15.351
    6        0.233   6.138   8.128  14.499
    7        1.078   1.279  10.057  12.414
    8        1.078   1.279  10.057  12.414
--------------------------------------------------
tot          3.776  39.658  67.964 111.399



 magnetization (x)

# of ion       s       p       d       tot
------------------------------------------
    1        0.043   0.028   3.228   3.299
    2       -0.010  -0.003   0.049   0.036
    3       -0.005  -0.001   0.009   0.004
    4       -0.010  -0.003   0.049   0.036
    5       -0.005  -0.001   0.009   0.004
    6        0.010  -0.002  -0.028  -0.020
    7       -0.012  -0.056   0.004  -0.064
    8       -0.012  -0.056   0.004  -0.064
--------------------------------------------------
tot         -0.000  -0.094   3.323   3.229
 
    CHARGE:  cpu time      0.0976: real time      0.0975
    FORLOC:  cpu time      0.0011: real time      0.0011
    FORNL :  cpu time      0.6308: real time      0.6304
    STRESS:  cpu time      1.9027: real time      1.9013
    FORCOR:  cpu time      0.0078: real time      0.0077
    FORHAR:  cpu time      0.0015: real time      0.0015
    MIXING:  cpu time      0.0043: real time      0.0043
    OFIELD:  cpu time      0.0000: real time      0.0000

  FORCE on cell =-STRESS in cart. coord.  units (eV):
  Direction    XX          YY          ZZ          XY          YZ          ZX
  --------------------------------------------------------------------------------------
  Alpha Z   832.86858   832.86858   832.86858
  Ewald   -5529.60667 -5474.61519 -5476.35340    -0.00000     0.00000    -9.77620
  Hartree  2530.97530  2603.40446  2601.11547    -0.00000     0.00000   -12.87618
  E(xc)    -862.74411  -862.75739  -862.75697     0.00000    -0.00000     0.00236
  Local     599.57004   469.23126   473.35031     0.00000     0.00000    23.17106
  n-local  -351.63956  -352.18403  -352.23517    -0.19023     1.36728    -0.52814
  augment  1379.82539  1381.11110  1381.07071    -0.00000     0.00000    -0.22851
  Kinetic  1401.40176  1401.16320  1404.75533    -0.55188     2.04349    -1.04901
  Fock        0.00000     0.00000     0.00000     0.00000     0.00000     0.00000
  -------------------------------------------------------------------------------------
  Total       0.24291     0.22201     0.22267     0.00000     0.00000     0.00372
  in kB       3.35927     3.07014     3.07928     0.00000     0.00000     0.05140
  external pressure =        3.17 kB  Pullay stress =        0.00 kB


 VOLUME and BASIS-vectors are now :
 -----------------------------------------------------------------------------
  energy-cutoff  :      520.00
  volume of cell :      115.86
      direct lattice vectors                 reciprocal lattice vectors
     7.177910095 -2.175413124  0.000400169     0.069664982 -0.229841401 -0.122394788
     7.177910095  2.175413124  0.000400169     0.069664982  0.229841401 -0.122394788
     6.518399861 -0.000000000  3.710159695    -0.000015028 -0.000000000  0.269556580

  length of vectors
     7.500321043  7.500321043  7.500321440     0.269556605  0.269556605  0.269556580


 FORCES acting on ions
    electron-ion (+dipol)            ewald-force                    non-local-force                 convergence-correction
 -----------------------------------------------------------------------------------------------
   -.728E-12 -.116E-13 -.105E-12   0.568E-13 0.296E-13 0.497E-13   0.000E+00 0.000E+00 0.000E+00   -.548E-11 0.114E-11 0.386E-11
   0.184E+03 0.217E-10 0.327E+02   -.184E+03 0.547E-14 -.327E+02   -.119E-01 -.173E-17 -.211E-02   0.636E-01 0.280E-11 0.113E-01
   -.166E+03 -.106E-10 -.295E+02   0.166E+03 -.173E-12 0.296E+02   -.509E+00 0.104E-16 -.905E-01   -.366E-01 0.501E-11 -.651E-02
   -.184E+03 0.442E-11 -.327E+02   0.184E+03 -.120E-13 0.327E+02   0.119E-01 0.694E-17 0.211E-02   -.636E-01 0.664E-11 -.113E-01
   0.166E+03 0.343E-11 0.295E+02   -.166E+03 0.155E-12 -.296E+02   0.509E+00 0.694E-17 0.905E-01   0.366E-01 0.185E-11 0.651E-02
   0.399E-12 -.200E-10 -.331E-11   -.398E-12 0.165E-15 -.114E-12   0.529E-22 0.529E-22 0.000E+00   -.252E-11 -.231E-11 0.143E-10
   0.171E+03 -.430E-11 0.303E+02   -.170E+03 -.196E-12 -.303E+02   -.265E+00 0.000E+00 -.472E-01   0.102E-01 0.259E-11 0.181E-02
   -.171E+03 0.238E-12 -.303E+02   0.170E+03 0.181E-12 0.303E+02   0.265E+00 0.347E-17 0.472E-01   -.102E-01 -.248E-11 -.181E-02
 -----------------------------------------------------------------------------------------------
   0.225E-09 -.516E-11 0.865E-10   0.114E-12 -.993E-14 0.213E-13   0.555E-16 0.260E-16 -.139E-16   0.119E-10 0.152E-10 0.843E-11
 
 
 POSITION                                       TOTAL-FORCE (eV/Angst)
 -----------------------------------------------------------------------------------
      0.00000     -0.00000      0.00000         0.000000     -0.000000      0.000000
      7.86171     -0.00000      1.39763         0.198285     -0.000000      0.035251
     18.23933      0.00000      3.24254        -0.117880     -0.000000     -0.020956
     13.01251      0.00000      2.31333        -0.198285     -0.000000     -0.035251
      2.63489      0.00000      0.46842         0.117880     -0.000000      0.020956
     10.43711     -0.00000      1.85548         0.000000      0.000000      0.000000
     15.66282      0.00000      2.78449        -0.072266     -0.000000     -0.012847
      5.21140     -0.00000      0.92647         0.072266     -0.000000      0.012847
 -----------------------------------------------------------------------------------
    total drift:                                0.000000      0.000000      0.000000


--------------------------------------------------------------------------------------------------------



  FREE ENERGIE OF THE ION-ELECTRON SYSTEM (eV)
  ---------------------------------------------------
  free  energy   TOTEN  =       -36.62532832 eV

  energy  without entropy=      -36.62532832  energy(sigma->0) =      -36.62532832
 
 d Force =-0.4682519E-03[-0.627E-03,-0.309E-03]  d Energy = 0.4660851E-03-0.934E-03
 d Force = 0.4568161E+00[ 0.455E+00, 0.459E+00]  d Ewald  =-0.7481825E+01 0.794E+01


--------------------------------------------------------------------------------------------------------


    POTLOK:  cpu time      0.3880: real time      0.3878


--------------------------------------------------------------------------------------------------------




--------------------------------------------------------------------------------------------------------


  
 reached required accuracy - stopping structural energy minimisation
     LOOP+:  cpu time     11.7735: real time     11.7995
 -----------------------------------------------------------------------------
|                                                                             |
|           W    W    AA    RRRRR   N    N  II  N    N   GGGG   !!!           |
|           W    W   A  A   R    R  NN   N  II  NN   N  G    G  !!!           |
|           W    W  A    A  R    R  N N  N  II  N N  N  G       !!!           |
|           W WW W  AAAAAA  RRRRR   N  N N  II  N  N N  G  GGG   !            |
|           WW  WW  A    A  R   R   N   NN  II  N   NN  G    G                |
|           W    W  A    A  R    R  N    N  II  N    N   GGGG   !!!           |
|                                                                             |
|     Tetrahedron method does not include variations of the Fermi             |
|     occupations, so forces and stress will be inaccurate. We suggest        |
|     using a different smearing scheme ISMEAR = 1 or 2 for metals in         |
|     relaxations.                                                            |
|                                                                             |
 -----------------------------------------------------------------------------

    4ORBIT:  cpu time      0.0000: real time      0.0000



 total charge

# of ion       s       p       d       tot
------------------------------------------
    1        0.259   6.200   4.178  10.637
    2        0.289   6.194   8.883  15.367
    3        0.275   6.187   8.889  15.351
    4        0.289   6.194   8.883  15.367
    5        0.275   6.187   8.889  15.351
    6        0.233   6.138   8.128  14.499
    7        1.078   1.279  10.057  12.414
    8        1.078   1.279  10.057  12.414
--------------------------------------------------
tot          3.776  39.658  67.964 111.399



 magnetization (x)

# of ion       s       p       d       tot
------------------------------------------
    1        0.043   0.028   3.228   3.299
    2       -0.010  -0.003   0.049   0.036
    3       -0.005  -0.001   0.009   0.004
    4       -0.010  -0.003   0.049   0.036
    5       -0.005  -0.001   0.009   0.004
    6        0.010  -0.002  -0.028  -0.020
    7       -0.012  -0.056   0.004  -0.064
    8       -0.012  -0.056   0.004  -0.064
--------------------------------------------------
tot         -0.000  -0.094   3.323   3.229
 
 BZINTS: Fermi energy:    9.018684;  124.000000 electrons
         Band energy:-0.187355E+04;  BLOECHL correction:   -0.165960

 total amount of memory used by VASP MPI-rank0   111920. kBytes
=======================================================================

   base      :      30000. kBytes
   nonlr-proj:      21596. kBytes
   fftplans  :       6720. kBytes
   grid      :      31259. kBytes
   one-center:        248. kBytes
   wavefun   :      22097. kBytes
 
  
  
 General timing and accounting informations for this job:
 ========================================================
  
                  Total CPU time used (sec):       80.787
                            User time (sec):       71.272
                          System time (sec):        9.515
                         Elapsed time (sec):       88.154
  
                   Maximum memory used (kb):     1480400.
                   Average memory used (kb):          N/A
  
                          Minor page faults:       524055
                          Major page faults:         4200
                 Voluntary context switches:       106607
