PROCAR lm decomposed
# of k-points:   19         # of bands:   88         # of ions:    8

 k-point     1 :    0.00000000 0.00000000 0.00000000     weight = 0.00800000

band     1 # energy  -61.63064101 # occ.  1.00000000
 
ion      s     py     pz     px    dxy    dyz    dz2    dxz  x2-y2    tot
    1  0.000  0.000  0.000  0.000  0.000  0.000  0.000  0.000  0.000  0.000
    2  0.000  0.498  0.000  0.000  0.000  0.000  0.000  0.000  0.000  0.498
    3  0.000  0.000  0.000  0.000  0.000  0.000  0.000  0.000  0.000  0.000
    4  0.000  0.498  0.000  0.000  0.000  0.000  0.000  0.000  0.000  0.498
    5  0.000  0.000  0.000  0.000  0.000  0.000  0.000  0.000  0.000  0.000
    6  0.000  0.000  0.000  0.000  0.000  0.000  0.000  0.000  0.000  0.000
    7  0.000  0.000  0.000  0.000  0.000  0.000  0.000  0.000  0.000  0.000
    8  0.000  0.000  0.000  0.000  0.000  0.000  0.000  0.000  0.000  0.000
tot    0.000  0.997  0.000  0.000  0.000  0.000  0.000  0.000  0.000  0.997
 
band     2 # energy  -61.63063846 # occ.  1.00000000
 
ion      s     py     pz     px    dxy    dyz    dz2    dxz  x2-y2    tot
    1  0.000  0.000  0.000  0.000  0.000  0.000  0.000  0.000  0.000  0.000
    2  0.000  0.000  0.483  0.015  0.000  0.000  0.000  0.000  0.000  0.498
    3  0.000  0.000  0.000  0.000  0.000  0.000  0.000  0.000  0.000  0.000
    4  0.000  0.000  0.483  0.015  0.000  0.000  0.000  0.000  0.000  0.498
    5  0.000  0.000  0.000  0.000  0.000  0.000  0.000  0.000  0.000  0.000
    6  0.000  0.000  0.000  0.000  0.000  0.000  0.000  0.000  0.000  0.000
    7  0.000  0.000  0.000  0.000  0.000  0.000  0.000  0.000  0.000  0.000
    8  0.000  0.000  0.000  0.000  0.000  0.000  0.000  0.000  0.000  0.000
tot    0.000  0.000  0.966  0.031  0.000  0.000  0.000  0.000  0.000  0.997
 
band     3 # energy  -61.62802326 # occ.  1.00000000
 
ion      s     py     pz     px    dxy    dyz    dz2    dxz  x2-y2    tot
    1  0.000  0.000  0.000  0.000  0.000  0.000  0.000  0.000  0.000  0.000
    2  0.000  0.498  0.000  0.000  0.000  0.000  0.000  0.000  0.000  0.498
    3  0.000  0.000  0.000  0.000  0.000  0.000  0.000  0.000  0.000  0.000
    4  0.000  0.498  0.000  0.000  0.000  0.000  0.000  0.000  0.000  0.498
    5  0.000  0.000  0.000  0.000  0.000  0.000  0.000  0.000  0.000  0.000
    6  0.000  0.000  0.000  0.000  0.000  0.000  0.000  0.000  0.000  0.000
    7  0.000  0.000  0.000  0.000  0.000  0.000  0.000  0.000  0.000  0.000
    8  0.000  0.000  0.000  0.000  0.000  0.000  0.000  0.000  0.000  0.000
tot    0.000  0.997  0.000  0.000  0.000  0.000  0.000  0.000  0.000  0.997
 
band     4 # energy  -61.62802071 # occ.  1.00000000
 
ion      s     py     pz     px    dxy    dyz    dz2    dxz  x2-y2    tot
    1  0.000  0.000  0.000  0.000  0.000  0.000  0.000  0.000  0.000  0.000
    2  0.000  0.000  0.483  0.015  0.000  0.000  0.000  0.000  0.000  0.498
    3  0.000  0.000  0.000  0.000  0.000  0.000  0.000  0.000  0.000  0.000
    4  0.000  0.000  0.483  0.015  0.000  0.000  0.000  0.000  0.000  0.498
    5  0.000  0.000  0.000  0.000  0.000  0.000  0.000  0.000  0.000  0.000
    6  0.000  0.000  0.000  0.000  0.000  0.000  0.000  0.000  0.000  0.000
    7  0.000  0.000  0.000  0.000  0.000  0.000  0.000  0.000  0.000  0.000
    8  0.000  0.000  0.000  0.000  0.000  0.000  0.000  0.000  0.000  0.000
tot    0.000  0.000  0.966  0.031  0.000  0.000  0.000  0.000  0.000  0.997
 
band     5 # energy  -61.59049511 # occ.  1.00000000
 
ion      s     py     pz     px    dxy    dyz    dz2    dxz  x2-y2    tot
    1  0.000  0.000  0.000  0.000  0.000  0.000  0.000  0.000  0.000  0.000
    2  0.000  0.000  0.015  0.483  0.000  0.000  0.000  0.000  0.000  0.498
    3  0.000  0.000  0.000  0.000  0.000  0.000  0.000  0.000  0.000  0.000
    4  0.000  0.000  0.015  0.483  0.000  0.000  0.000  0.000  0.000  0.498
    5  0.000  0.000  0.000  0.000  0.000  0.000  0.000  0.000  0.000  0.000
    6  0.000  0.000  0.000  0.000  0.000  0.000  0.000  0.000  0.000  0.000
    7  0.000  0.000  0.000  0.000  0.000  0.000  0.000  0.000  0.000  0.000
    8  0.000  0.000  0.000  0.000  0.000  0.000  0.000  0.000  0.000  0.000
tot    0.000  0.000  0.031  0.966  0.000  0.000  0.000  0.000  0.000  0.997
 
band     6 # energy  -61.58853464 # occ.  1.00000000
 
ion      s     py     pz     px    dxy    dyz    dz2    dxz  x2-y2    tot
    1  0.000  0.000  0.000  0.000  0.000  0.000  0.000  0.000  0.000  0.000
    2  0.000  0.000  0.015  0.482  0.000  0.000  0.000  0.000  0.000  0.498
    3  0.000  0.000  0.000  0.001  0.000  0.000  0.000  0.000  0.000  0.001
    4  0.000  0.000  0.015  0.482  0.000  0.000  0.000  0.000  0.000  0.498
    5  0.000  0.000  0.000  0.001  0.000  0.000  0.000  0.000  0.000  0.001
    6  0.000  0.000  0.000  0.000  0.000  0.000  0.000  0.000  0.000  0.000
    7  0.000  0.000  0.000  0.000  0.000  0.000  0.000  0.000  0.000  0.000
    8  0.000  0.000  0.000  0.000  0.000  0.000  0.000  0.000  0.000  0.000
tot    0.000  0.000  0.031  0.966  0.000  0.000  0.000  0.000  0.000  0.997
 
band     7 # energy  -61.55785566 # occ.  1.00000000
 
ion      s     py     pz     px    dxy    dyz    dz2    dxz  x2-y2    tot
    1  0.000  0.000  0.000  0.000  0.000  0.000  0.000  0.000  0.000  0.000
    2  0.000  0.000  0.000  0.000  0.000  0.000  0.000  0.000  0.000  0.000
    3  0.000  0.000  0.015  0.483  0.000  0.000  0.000  0.000  0.000  0.498
    4  0.000  0.000  0.000  0.000  0.000  0.000  0.000  0.000  0.000  0.000
    5  0.000  0.000  0.015  0.483  0.000  0.000  0.000  0.000  0.000  0.498
    6  0.000  0.000  0.000  0.000  0.000  0.000  0.000  0.000  0.000  0.000
    7  0.000  0.000  0.000  0.000  0.000  0.000  0.000  0.000  0.000  0.000
    8  0.000  0.000  0.000  0.000  0.000  0.000  0.000  0.000  0.000  0.000
tot    0.000  0.000  0.031  0.966  0.000  0.000  0.000  0.000  0.000  0.997
 
band     8 # energy  -61.55542288 # occ.  1.00000000
 
ion      s     py     pz     px    dxy    dyz    dz2    dxz  x2-y2    tot
    1  0.000  0.000  0.000  0.000  0.000  0.000  0.000  0.000  0.000  0.000
    2  0.000  0.000  0.000  0.001  0.000  0.000  0.000  0.000  0.000  0.001
    3  0.000  0.000  0.015  0.482  0.000  0.000  0.000  0.000  0.000  0.498
    4  0.000  0.000  0.000  0.001  0.000  0.000  0.000  0.000  0.000  0.001
    5  0.000  0.000  0.015  0.482  0.000  0.000  0.000  0.000  0.000  0.498
    6  0.000  0.000  0.000  0.000  0.000  0.000  0.000  0.000  0.000  0.000
    7  0.000  0.000  0.000  0.000  0.000  0.000  0.000  0.000  0.000  0.000
    8  0.000  0.000  0.000  0.000  0.000  0.000  0.000  0.000  0.000  0.000
tot    0.000  0.000  0.031  0.966  0.000  0.000  0.000  0.000  0.000  0.997
 
band     9 # energy  -61.47009211 # occ.  1.00000000
 
ion      s     py     pz     px    dxy    dyz    dz2    dxz  x2-y2    tot
    1  0.000  0.000  0.000  0.000  0.000  0.000  0.000  0.000  0.000  0.000
    2  0.000  0.000  0.000  0.000  0.000  0.000  0.000  0.000  0.000  0.000
    3  0.000  0.498  0.000  0.000  0.000  0.000  0.000  0.000  0.000  0.498
    4  0.000  0.000  0.000  0.000  0.000  0.000  0.000  0.000  0.000  0.000
    5  0.000  0.498  0.000  0.000  0.000  0.000  0.000  0.000  0.000  0.498
    6  0.000  0.000  0.000  0.000  0.000  0.000  0.000  0.000  0.000  0.000
    7  0.000  0.000  0.000  0.000  0.000  0.000  0.000  0.000  0.000  0.000
    8  0.000  0.000  0.000  0.000  0.000  0.000  0.000  0.000  0.000  0.000
tot    0.000  0.997  0.000  0.000  0.000  0.000  0.000  0.000  0.000  0.997
 
band    10 # energy  -61.47008955 # occ.  1.00000000
 
ion      s     py     pz     px    dxy    dyz    dz2    dxz  x2-y2    tot
    1  0.000  0.000  0.000  0.000  0.000  0.000  0.000  0.000  0.000  0.000
    2  0.000  0.000  0.000  0.000  0.000  0.000  0.000  0.000  0.000  0.000
    3  0.000  0.000  0.483  0.015  0.000  0.000  0.000  0.000  0.000  0.498
    4  0.000  0.000  0.000  0.000  0.000  0.000  0.000  0.000  0.000  0.000
    5  0.000  0.000  0.483  0.015  0.000  0.000  0.000  0.000  0.000  0.498
    6  0.000  0.000  0.000  0.000  0.000  0.000  0.000  0.000  0.000  0.000
    7  0.000  0.000  0.000  0.000  0.000  0.000  0.000  0.000  0.000  0.000
    8  0.000  0.000  0.000  0.000  0.000  0.000  0.000  0.000  0.000  0.000
tot    0.000  0.000  0.966  0.031  0.000  0.000  0.000  0.000  0.000  0.997
 
band    11 # energy  -61.46687540 # occ.  1.00000000
 
ion      s     py     pz     px    dxy    dyz    dz2    dxz  x2-y2    tot
    1  0.000  0.000  0.000  0.000  0.000  0.000  0.000  0.000  0.000  0.000
    2  0.000  0.000  0.000  0.000  0.000  0.000  0.000  0.000  0.000  0.000
    3  0.000  0.498  0.000  0.000  0.000  0.000  0.000  0.000  0.000  0.498
    4  0.000  0.000  0.000  0.000  0.000  0.000  0.000  0.000  0.000  0.000
    5  0.000  0.498  0.000  0.000  0.000  0.000  0.000  0.000  0.000  0.498
    6  0.000  0.000  0.000  0.000  0.000  0.000  0.000  0.000  0.000  0.000
    7  0.000  0.000  0.000  0.000  0.000  0.000  0.000  0.000  0.000  0.000
    8  0.000  0.000  0.000  0.000  0.000  0.000  0.000  0.000  0.000  0.000
tot    0.000  0.997  0.000  0.000  0.000  0.000  0.000  0.000  0.000  0.997
 
band    12 # energy  -61.46687284 # occ.  1.00000000
 
ion      s     py     pz     px    dxy    dyz    dz2    dxz  x2-y2    tot
    1  0.000  0.000  0.000  0.000  0.000  0.000  0.000  0.000  0.000  0.000
    2  0.000  0.000  0.000  0.000  0.000  0.000  0.000  0.000  0.000  0.000
    3  0.000  0.000  0.483  0.015  0.000  0.000  0.000  0.000  0.000  0.498
    4  0.000  0.000  0.000  0.000  0.000  0.000  0.000  0.000  0.000  0.000
    5  0.000  0.000  0.483  0.015  0.000  0.000  0.000  0.000  0.000  0.498
    6  0.000  0.000  0.000  0.000  0.000  0.000  0.000  0.000  0.000  0.000
    7  0.000  0.000  0.000  0.000  0.000  0.000  0.000  0.000  0.000  0.000
    8  0.000  0.000  0.000  0.000  0.000  0.000  0.000  0.000  0.000  0.000
tot    0.000  0.000  0.966  0.031  0.000  0.000  0.000  0.000  0.000  0.997
 
band    13 # energy  -53.92250232 # occ.  1.00000000
 
ion      s     py     pz     px    dxy    dyz    dz2    dxz  x2-y2    tot
    1  0.000  0.000  0.000  0.000  0.000  0.000  0.000  0.000  0.000  0.000
    2  0.000  0.000  0.000  0.000  0.000  0.000  0.000  0.000  0.000  0.000
    3  0.000  0.000  0.000  0.000  0.000  0.000  0.000  0.000  0.000  0.000
    4  0.000  0.000  0.000  0.000  0.000  0.000  0.000  0.000  0.000  0.000
    5  0.000  0.000  0.000  0.000  0.000  0.000  0.000  0.000  0.000  0.000
    6  0.000  0.997  0.000  0.000  0.000  0.000  0.000  0.000  0.000  0.997
    7  0.000  0.000  0.000  0.000  0.000  0.000  0.000  0.000  0.000  0.000
    8  0.000  0.000  0.000  0.000  0.000  0.000  0.000  0.000  0.000  0.000
tot    0.000  0.997  0.000  0.000  0.000  0.000  0.000  0.000  0.000  0.997
 
band    14 # energy  -53.92249999 # occ.  1.00000000
 
ion      s     py     pz     px    dxy    dyz    dz2    dxz  x2-y2    tot
    1  0.000  0.000  0.000  0.000  0.000  0.000  0.000  0.000  0.000  0.000
    2  0.000  0.000  0.000  0.000  0.000  0.000  0.000  0.000  0.000  0.000
    3  0.000  0.000  0.000  0.000  0.000  0.000  0.000  0.000  0.000  0.000
    4  0.000  0.000  0.000  0.000  0.000  0.000  0.000  0.000  0.000  0.000
    5  0.000  0.000  0.000  0.000  0.000  0.000  0.000  0.000  0.000  0.000
    6  0.000  0.000  0.966  0.031  0.000  0.000  0.000  0.000  0.000  0.997
    7  0.000  0.000  0.000  0.000  0.000  0.000  0.000  0.000  0.000  0.000
    8  0.000  0.000  0.000  0.000  0.000  0.000  0.000  0.000  0.000  0.000
tot    0.000  0.000  0.966  0.031  0.000  0.000  0.000  0.000  0.000  0.997
 
band    15 # energy  -53.89333369 # occ.  1.00000000
 
ion      s     py     pz     px    dxy    dyz    dz2    dxz  x2-y2    tot
    1  0.000  0.000  0.000  0.000  0.000  0.000  0.000  0.000  0.000  0.000
    2  0.000  0.000  0.000  0.000  0.000  0.000  0.000  0.000  0.000  0.000
    3  0.000  0.000  0.000  0.000  0.000  0.000  0.000  0.000  0.000  0.000
    4  0.000  0.000  0.000  0.000  0.000  0.000  0.000  0.000  0.000  0.000
    5  0.000  0.000  0.000  0.000  0.000  0.000  0.000  0.000  0.000  0.000
    6  0.000  0.000  0.031  0.966  0.000  0.000  0.000  0.000  0.000  0.997
    7  0.000  0.000  0.000  0.000  0.000  0.000  0.000  0.000  0.000  0.000
    8  0.000  0.000  0.000  0.000  0.000  0.000  0.000  0.000  0.000  0.000
tot    0.000  0.000  0.031  0.966  0.000  0.000  0.000  0.000  0.000  0.997
 
band    16 # energy  -35.06422130 # occ.  1.00000000
 
ion      s     py     pz     px    dxy    dyz    dz2    dxz  x2-y2    tot
    1  0.000  0.000  0.030  0.963  0.000  0.000  0.000  0.000  0.000  0.994
    2  0.000  0.000  0.000  0.000  0.000  0.000  0.000  0.000  0.000  0.000
    3  0.000  0.000  0.000  0.000  0.000  0.000  0.000  0.000  0.000  0.000
    4  0.000  0.000  0.000  0.000  0.000  0.000  0.000  0.000  0.000  0.000
    5  0.000  0.000  0.000  0.000  0.000  0.000  0.000  0.000  0.000  0.000
    6  0.000  0.000  0.000  0.000  0.000  0.000  0.000  0.000  0.000  0.000
    7  0.000  0.000  0.000  0.000  0.000  0.000  0.000  0.000  0.000  0.000
    8  0.000  0.000  0.000  0.000  0.000  0.000  0.000  0.000  0.000  0.000
tot    0.000  0.000  0.030  0.963  0.000  0.000  0.000  0.000  0.000  0.994
 
band    17 # energy  -35.00747712 # occ.  1.00000000
 
ion      s     py     pz     px    dxy    dyz    dz2    dxz  x2-y2    tot
    1  0.000  0.994  0.000  0.000  0.000  0.000  0.000  0.000  0.000  0.994
    2  0.000  0.000  0.000  0.000  0.000  0.000  0.000  0.000  0.000  0.000
    3  0.000  0.000  0.000  0.000  0.000  0.000  0.000  0.000  0.000  0.000
    4  0.000  0.000  0.000  0.000  0.000  0.000  0.000  0.000  0.000  0.000
    5  0.000  0.000  0.000  0.000  0.000  0.000  0.000  0.000  0.000  0.000
    6  0.000  0.000  0.000  0.000  0.000  0.000  0.000  0.000  0.000  0.000
    7  0.000  0.000  0.000  0.000  0.000  0.000  0.000  0.000  0.000  0.000
    8  0.000  0.000  0.000  0.000  0.000  0.000  0.000  0.000  0.000  0.000
tot    0.000  0.994  0.000  0.000  0.000  0.000  0.000  0.000  0.000  0.994
 
band    18 # energy  -35.00747584 # occ.  1.00000000
 
ion      s     py     pz     px    dxy    dyz    dz2    dxz  x2-y2    tot
    1  0.000  0.000  0.963  0.030  0.000  0.000  0.000  0.000  0.000  0.994
    2  0.000  0.000  0.000  0.000  0.000  0.000  0.000  0.000  0.000  0.000
    3  0.000  0.000  0.000  0.000  0.000  0.000  0.000  0.000  0.000  0.000
    4  0.000  0.000  0.000  0.000  0.000  0.000  0.000  0.000  0.000  0.000
    5  0.000  0.000  0.000  0.000  0.000  0.000  0.000  0.000  0.000  0.000
    6  0.000  0.000  0.000  0.000  0.000  0.000  0.000  0.000  0.000  0.000
    7  0.000  0.000  0.000  0.000  0.000  0.000  0.000  0.000  0.000  0.000
    8  0.000  0.000  0.000  0.000  0.000  0.000  0.000  0.000  0.000  0.000
tot    0.000  0.000  0.963  0.030  0.000  0.000  0.000  0.000  0.000  0.994
 
band    19 # energy  -12.66328956 # occ.  1.00000000
 
ion      s     py     pz     px    dxy    dyz    dz2    dxz  x2-y2    tot
    1  0.000  0.000  0.000  0.000  0.000  0.000  0.000  0.000  0.000  0.000
    2  0.000  0.000  0.000  0.000  0.000  0.000  0.000  0.000  0.000  0.000
    3  0.000  0.000  0.000  0.000  0.000  0.000  0.000  0.000  0.000  0.000
    4  0.000  0.000  0.000  0.000  0.000  0.000  0.000  0.000  0.000  0.000
    5  0.000  0.000  0.000  0.000  0.000  0.000  0.000  0.000  0.000  0.000
    6  0.000  0.000  0.000  0.000  0.000  0.000  0.000  0.000  0.000  0.000
    7  0.000  0.000  0.000  0.000  0.000  0.000  0.102  0.044  0.348  0.494
    8  0.000  0.000  0.000  0.000  0.000  0.000  0.102  0.044  0.348  0.494
tot    0.001  0.000  0.000  0.000  0.000  0.000  0.204  0.088  0.696  0.989
 
band    20 # energy  -12.66319853 # occ.  1.00000000
 
ion      s     py     pz     px    dxy    dyz    dz2    dxz  x2-y2    tot
    1  0.000  0.000  0.000  0.000  0.000  0.000  0.000  0.000  0.000  0.000
    2  0.000  0.000  0.000  0.000  0.000  0.000  0.000  0.000  0.000  0.000
    3  0.000  0.000  0.000  0.000  0.000  0.000  0.000  0.000  0.000  0.000
    4  0.000  0.000  0.000  0.000  0.000  0.000  0.000  0.000  0.000  0.000
    5  0.000  0.000  0.000  0.000  0.000  0.000  0.000  0.000  0.000  0.000
    6  0.000  0.000  0.000  0.000  0.000  0.000  0.000  0.000  0.000  0.000
    7  0.000  0.000  0.000  0.000  0.000  0.000  0.102  0.044  0.348  0.494
    8  0.000  0.000  0.000  0.000  0.000  0.000  0.102  0.044  0.348  0.494
tot    0.000  0.000  0.000  0.001  0.000  0.000  0.204  0.088  0.697  0.989
 
band    21 # energy  -12.65611735 # occ.  1.00000000
 
ion      s     py     pz     px    dxy    dyz    dz2    dxz  x2-y2    tot
    1  0.000  0.000  0.000  0.000  0.000  0.000  0.000  0.000  0.000  0.000
    2  0.000  0.000  0.000  0.000  0.000  0.000  0.000  0.000  0.000  0.000
    3  0.000  0.000  0.000  0.000  0.000  0.000  0.000  0.000  0.000  0.000
    4  0.000  0.000  0.000  0.000  0.000  0.000  0.000  0.000  0.000  0.000
    5  0.000  0.000  0.000  0.000  0.000  0.000  0.000  0.000  0.000  0.000
    6  0.000  0.000  0.000  0.000  0.000  0.000  0.000  0.000  0.000  0.000
    7  0.000  0.000  0.000  0.000  0.000  0.000  0.107  0.259  0.128  0.494
    8  0.000  0.000  0.000  0.000  0.000  0.000  0.107  0.259  0.128  0.494
tot    0.000  0.000  0.001  0.000  0.000  0.000  0.215  0.517  0.256  0.989
 
band    22 # energy  -12.65611682 # occ.  1.00000000
 
ion      s     py     pz     px    dxy    dyz    dz2    dxz  x2-y2    tot
    1  0.000  0.000  0.000  0.000  0.000  0.000  0.000  0.000  0.000  0.000
    2  0.000  0.000  0.000  0.000  0.000  0.000  0.000  0.000  0.000  0.000
    3  0.000  0.000  0.000  0.000  0.000  0.000  0.000  0.000  0.000  0.000
    4  0.000  0.000  0.000  0.000  0.000  0.000  0.000  0.000  0.000  0.000
    5  0.000  0.000  0.000  0.000  0.000  0.000  0.000  0.000  0.000  0.000
    6  0.000  0.000  0.000  0.000  0.000  0.000  0.000  0.000  0.000  0.000
    7  0.000  0.000  0.000  0.000  0.115  0.379  0.000  0.000  0.000  0.494
    8  0.000  0.000  0.000  0.000  0.115  0.379  0.000  0.000  0.000  0.494
tot    0.000  0.001  0.000  0.000  0.230  0.759  0.000  0.000  0.000  0.989
 
band    23 # energy  -12.64724470 # occ.  1.00000000
 
ion      s     py     pz     px    dxy    dyz    dz2    dxz  x2-y2    tot
    1  0.000  0.000  0.000  0.000  0.000  0.000  0.000  0.000  0.000  0.000
    2  0.000  0.000  0.000  0.000  0.000  0.000  0.000  0.000  0.000  0.000
    3  0.000  0.000  0.000  0.000  0.000  0.000  0.000  0.000  0.000  0.000
    4  0.000  0.000  0.000  0.000  0.000  0.000  0.000  0.000  0.000  0.000
    5  0.000  0.000  0.000  0.000  0.000  0.000  0.000  0.000  0.000  0.000
    6  0.000  0.000  0.000  0.000  0.000  0.000  0.000  0.000  0.000  0.000
    7  0.000  0.000  0.000  0.000  0.000  0.000  0.193  0.158  0.143  0.494
    8  0.000  0.000  0.000  0.000  0.000  0.000  0.193  0.158  0.143  0.494
tot    0.000  0.000  0.001  0.000  0.000  0.000  0.385  0.317  0.287  0.990
 
band    24 # energy  -12.64724415 # occ.  1.00000000
 
ion      s     py     pz     px    dxy    dyz    dz2    dxz  x2-y2    tot
    1  0.000  0.000  0.000  0.000  0.000  0.000  0.000  0.000  0.000  0.000
    2  0.000  0.000  0.000  0.000  0.000  0.000  0.000  0.000  0.000  0.000
    3  0.000  0.000  0.000  0.000  0.000  0.000  0.000  0.000  0.000  0.000
    4  0.000  0.000  0.000  0.000  0.000  0.000  0.000  0.000  0.000  0.000
    5  0.000  0.000  0.000  0.000  0.000  0.000  0.000  0.000  0.000  0.000
    6  0.000  0.000  0.000  0.000  0.000  0.000  0.000  0.000  0.000  0.000
    7  0.000  0.000  0.000  0.000  0.037  0.457  0.000  0.000  0.000  0.494
    8  0.000  0.000  0.000  0.000  0.037  0.457  0.000  0.000  0.000  0.494
tot    0.000  0.001  0.000  0.000  0.074  0.915  0.000  0.000  0.000  0.990
 
band    25 # energy  -12.61888196 # occ.  1.00000000
 
ion      s     py     pz     px    dxy    dyz    dz2    dxz  x2-y2    tot
    1  0.000  0.000  0.000  0.000  0.000  0.000  0.000  0.000  0.000  0.000
    2  0.000  0.000  0.000  0.000  0.000  0.000  0.000  0.000  0.000  0.000
    3  0.000  0.000  0.000  0.000  0.000  0.000  0.000  0.000  0.000  0.000
    4  0.000  0.000  0.000  0.000  0.000  0.000  0.000  0.000  0.000  0.000
    5  0.000  0.000  0.000  0.000  0.000  0.000  0.000  0.000  0.000  0.000
    6  0.000  0.000  0.000  0.000  0.000  0.000  0.000  0.000  0.000  0.000
    7  0.000  0.000  0.000  0.000  0.380  0.115  0.000  0.000  0.000  0.495
    8  0.000  0.000  0.000  0.000  0.380  0.115  0.000  0.000  0.000  0.495
tot    0.000  0.000  0.000  0.000  0.760  0.230  0.000  0.000  0.000  0.990
 
band    26 # energy  -12.61888033 # occ.  1.00000000
 
ion      s     py     pz     px    dxy    dyz    dz2    dxz  x2-y2    tot
    1  0.000  0.000  0.000  0.000  0.000  0.000  0.000  0.000  0.000  0.000
    2  0.000  0.000  0.000  0.000  0.000  0.000  0.000  0.000  0.000  0.000
    3  0.000  0.000  0.000  0.000  0.000  0.000  0.000  0.000  0.000  0.000
    4  0.000  0.000  0.000  0.000  0.000  0.000  0.000  0.000  0.000  0.000
    5  0.000  0.000  0.000  0.000  0.000  0.000  0.000  0.000  0.000  0.000
    6  0.000  0.000  0.000  0.000  0.000  0.000  0.000  0.000  0.000  0.000
    7  0.000  0.000  0.000  0.000  0.000  0.000  0.285  0.192  0.018  0.495
    8  0.000  0.000  0.000  0.000  0.000  0.000  0.285  0.192  0.018  0.495
tot    0.000  0.000  0.000  0.000  0.000  0.000  0.571  0.383  0.035  0.990
 
band    27 # energy  -12.61416368 # occ.  1.00000000
 
ion      s     py     pz     px    dxy    dyz    dz2    dxz  x2-y2    tot
    1  0.000  0.000  0.000  0.000  0.000  0.000  0.000  0.000  0.000  0.000
    2  0.000  0.000  0.000  0.000  0.000  0.000  0.000  0.000  0.000  0.000
    3  0.000  0.000  0.000  0.000  0.000  0.000  0.000  0.000  0.000  0.000
    4  0.000  0.000  0.000  0.000  0.000  0.000  0.000  0.000  0.000  0.000
    5  0.000  0.000  0.000  0.000  0.000  0.000  0.000  0.000  0.000  0.000
    6  0.000  0.000  0.000  0.000  0.000  0.000  0.000  0.000  0.000  0.000
    7  0.000  0.000  0.000  0.000  0.458  0.037  0.000  0.000  0.000  0.495
    8  0.000  0.000  0.000  0.000  0.458  0.037  0.000  0.000  0.000  0.495
tot    0.000  0.000  0.000  0.000  0.916  0.074  0.000  0.000  0.000  0.990
 
band    28 # energy  -12.61416203 # occ.  1.00000000
 
ion      s     py     pz     px    dxy    dyz    dz2    dxz  x2-y2    tot
    1  0.000  0.000  0.000  0.000  0.000  0.000  0.000  0.000  0.000  0.000
    2  0.000  0.000  0.000  0.000  0.000  0.000  0.000  0.000  0.000  0.000
    3  0.000  0.000  0.000  0.000  0.000  0.000  0.000  0.000  0.000  0.000
    4  0.000  0.000  0.000  0.000  0.000  0.000  0.000  0.000  0.000  0.000
    5  0.000  0.000  0.000  0.000  0.000  0.000  0.000  0.000  0.000  0.000
    6  0.000  0.000  0.000  0.000  0.000  0.000  0.000  0.000  0.000  0.000
    7  0.000  0.000  0.000  0.000  0.000  0.000  0.200  0.293  0.002  0.495
    8  0.000  0.000  0.000  0.000  0.000  0.000  0.200  0.293  0.002  0.495
tot    0.000  0.000  0.000  0.000  0.000  0.000  0.400  0.585  0.005  0.990
 
band    29 # energy   -2.20291771 # occ.  1.00000000
 
ion      s     py     pz     px    dxy    dyz    dz2    dxz  x2-y2    tot
    1  0.033  0.000  0.000  0.000  0.000  0.000  0.000  0.000  0.000  0.033
    2  0.029  0.000  0.000  0.000  0.000  0.000  0.000  0.000  0.000  0.029
    3  0.029  0.000  0.000  0.000  0.000  0.000  0.000  0.000  0.000  0.029
    4  0.029  0.000  0.000  0.000  0.000  0.000  0.000  0.000  0.000  0.029
    5  0.029  0.000  0.000  0.000  0.000  0.000  0.000  0.000  0.000  0.029
    6  0.022  0.000  0.000  0.000  0.000  0.000  0.000  0.000  0.000  0.022
    7  0.174  0.000  0.000  0.000  0.000  0.000  0.000  0.000  0.000  0.174
    8  0.174  0.000  0.000  0.000  0.000  0.000  0.000  0.000  0.000  0.174
tot    0.518  0.000  0.000  0.000  0.000  0.000  0.000  0.000  0.000  0.518
 
band    30 # energy   -0.08269465 # occ.  1.00000000
 
ion      s     py     pz     px    dxy    dyz    dz2    dxz  x2-y2    tot
    1  0.000  0.000  0.000  0.012  0.000  0.000  0.000  0.000  0.000  0.013
    2  0.014  0.000  0.000  0.005  0.000  0.000  0.002  0.001  0.006  0.028
    3  0.012  0.000  0.000  0.006  0.000  0.000  0.002  0.001  0.005  0.026
    4  0.014  0.000  0.000  0.005  0.000  0.000  0.002  0.001  0.006  0.028
    5  0.012  0.000  0.000  0.006  0.000  0.000  0.002  0.001  0.005  0.026
    6  0.000  0.000  0.000  0.007  0.000  0.000  0.000  0.000  0.000  0.007
    7  0.240  0.000  0.000  0.000  0.000  0.000  0.000  0.000  0.001  0.241
    8  0.240  0.000  0.000  0.000  0.000  0.000  0.000  0.000  0.001  0.241
tot    0.533  0.000  0.001  0.040  0.000  0.000  0.007  0.003  0.024  0.608
 
band    31 # energy    1.98661499 # occ.  1.00000000
 
ion      s     py     pz     px    dxy    dyz    dz2    dxz  x2-y2    tot
    1  0.055  0.000  0.000  0.000  0.000  0.000  0.003  0.001  0.011  0.071
    2  0.028  0.000  0.000  0.007  0.000  0.000  0.001  0.000  0.002  0.039
    3  0.031  0.000  0.000  0.006  0.000  0.000  0.001  0.000  0.002  0.040
    4  0.028  0.000  0.000  0.007  0.000  0.000  0.001  0.000  0.002  0.039
    5  0.031  0.000  0.000  0.006  0.000  0.000  0.001  0.000  0.002  0.040
    6  0.042  0.000  0.000  0.000  0.000  0.000  0.001  0.001  0.005  0.049
    7  0.000  0.000  0.003  0.080  0.000  0.000  0.000  0.000  0.000  0.083
    8  0.000  0.000  0.003  0.080  0.000  0.000  0.000  0.000  0.000  0.083
tot    0.216  0.000  0.006  0.186  0.000  0.000  0.007  0.003  0.025  0.443
 
band    32 # energy    4.47714545 # occ.  1.00000000
 
ion      s     py     pz     px    dxy    dyz    dz2    dxz  x2-y2    tot
    1  0.000  0.000  0.000  0.010  0.000  0.000  0.000  0.000  0.000  0.010
    2  0.000  0.000  0.000  0.000  0.000  0.000  0.036  0.015  0.123  0.174
    3  0.000  0.000  0.000  0.000  0.000  0.000  0.037  0.016  0.126  0.178
    4  0.000  0.000  0.000  0.000  0.000  0.000  0.036  0.015  0.123  0.174
    5  0.000  0.000  0.000  0.000  0.000  0.000  0.037  0.016  0.126  0.178
    6  0.000  0.000  0.000  0.006  0.000  0.000  0.000  0.000  0.000  0.006
    7  0.000  0.000  0.001  0.046  0.000  0.000  0.000  0.000  0.000  0.048
    8  0.000  0.000  0.001  0.046  0.000  0.000  0.000  0.000  0.000  0.048
tot    0.000  0.000  0.003  0.109  0.000  0.000  0.145  0.063  0.497  0.818
 
band    33 # energy    4.47829833 # occ.  1.00000000
 
ion      s     py     pz     px    dxy    dyz    dz2    dxz  x2-y2    tot
    1  0.000  0.000  0.011  0.000  0.000  0.000  0.000  0.000  0.000  0.012
    2  0.000  0.000  0.000  0.000  0.000  0.000  0.058  0.085  0.054  0.197
    3  0.000  0.000  0.000  0.000  0.000  0.000  0.035  0.079  0.040  0.154
    4  0.000  0.000  0.000  0.000  0.000  0.000  0.058  0.085  0.054  0.197
    5  0.000  0.000  0.000  0.000  0.000  0.000  0.035  0.079  0.040  0.154
    6  0.000  0.000  0.006  0.000  0.000  0.000  0.000  0.000  0.000  0.006
    7  0.000  0.000  0.046  0.001  0.000  0.000  0.000  0.000  0.000  0.048
    8  0.000  0.000  0.046  0.001  0.000  0.000  0.000  0.000  0.000  0.048
tot    0.000  0.000  0.110  0.003  0.000  0.000  0.186  0.327  0.189  0.816
 
band    34 # energy    4.47829891 # occ.  1.00000000
 
ion      s     py     pz     px    dxy    dyz    dz2    dxz  x2-y2    tot
    1  0.000  0.012  0.000  0.000  0.000  0.000  0.000  0.000  0.000  0.012
    2  0.000  0.000  0.000  0.000  0.030  0.167  0.000  0.000  0.000  0.197
    3  0.000  0.000  0.000  0.000  0.034  0.120  0.000  0.000  0.000  0.154
    4  0.000  0.000  0.000  0.000  0.030  0.167  0.000  0.000  0.000  0.197
    5  0.000  0.000  0.000  0.000  0.034  0.120  0.000  0.000  0.000  0.154
    6  0.000  0.006  0.000  0.000  0.000  0.000  0.000  0.000  0.000  0.006
    7  0.000  0.048  0.000  0.000  0.000  0.000  0.000  0.000  0.000  0.048
    8  0.000  0.048  0.000  0.000  0.000  0.000  0.000  0.000  0.000  0.048
tot    0.000  0.113  0.000  0.000  0.128  0.574  0.000  0.000  0.000  0.816
 
band    35 # energy    4.55614438 # occ.  1.00000000
 
ion      s     py     pz     px    dxy    dyz    dz2    dxz  x2-y2    tot
    1  0.000  0.000  0.000  0.000  0.069  0.026  0.000  0.000  0.000  0.095
    2  0.000  0.003  0.000  0.000  0.048  0.171  0.000  0.000  0.000  0.222
    3  0.000  0.003  0.000  0.000  0.001  0.059  0.000  0.000  0.000  0.063
    4  0.000  0.003  0.000  0.000  0.048  0.171  0.000  0.000  0.000  0.222
    5  0.000  0.003  0.000  0.000  0.001  0.059  0.000  0.000  0.000  0.063
    6  0.000  0.000  0.000  0.000  0.007  0.006  0.000  0.000  0.000  0.014
    7  0.000  0.052  0.000  0.000  0.001  0.000  0.000  0.000  0.000  0.053
    8  0.000  0.052  0.000  0.000  0.001  0.000  0.000  0.000  0.000  0.053
tot    0.000  0.117  0.000  0.000  0.177  0.492  0.000  0.000  0.000  0.786
 
band    36 # energy    4.55614485 # occ.  1.00000000
 
ion      s     py     pz     px    dxy    dyz    dz2    dxz  x2-y2    tot
    1  0.000  0.000  0.000  0.000  0.000  0.000  0.057  0.033  0.004  0.095
    2  0.000  0.000  0.003  0.000  0.000  0.000  0.174  0.003  0.042  0.222
    3  0.000  0.000  0.003  0.000  0.000  0.000  0.030  0.012  0.018  0.063
    4  0.000  0.000  0.003  0.000  0.000  0.000  0.174  0.003  0.042  0.222
    5  0.000  0.000  0.003  0.000  0.000  0.000  0.030  0.012  0.018  0.063
    6  0.000  0.000  0.000  0.000  0.000  0.000  0.010  0.003  0.001  0.014
    7  0.000  0.000  0.051  0.002  0.000  0.000  0.001  0.001  0.000  0.053
    8  0.000  0.000  0.051  0.002  0.000  0.000  0.001  0.001  0.000  0.053
tot    0.000  0.000  0.113  0.004  0.000  0.000  0.476  0.068  0.125  0.786
 
band    37 # energy    4.89643038 # occ.  1.00000000
 
ion      s     py     pz     px    dxy    dyz    dz2    dxz  x2-y2    tot
    1  0.000  0.000  0.000  0.000  0.010  0.002  0.000  0.000  0.000  0.012
    2  0.000  0.000  0.000  0.000  0.127  0.000  0.000  0.000  0.000  0.128
    3  0.000  0.000  0.000  0.000  0.156  0.090  0.000  0.000  0.000  0.246
    4  0.000  0.000  0.000  0.000  0.127  0.000  0.000  0.000  0.000  0.128