 running    8 mpi-ranks, with    1 threads/rank, on    1 nodes
 distrk:  each k-point on    8 cores,    1 groups
 distr:  one band on    1 cores,    8 groups
 OpenACC runtime initialized ...    8 GPUs detected
 vasp.6.4.3 19Mar24 (build Feb 19 2025 12:53:47) complex                         
 POSCAR found type information on POSCAR CrCuNiSn
 POSCAR found :  4 types and       8 ions
 scaLAPACK will be used selectively (only on CPU)
 -----------------------------------------------------------------------------
|                                                                             |
|               ----> ADVICE to this user running VASP <----                  |
|                                                                             |
|     You have a (more or less) 'small supercell' and for smaller cells       |
|     it is recommended to use the reciprocal-space projection scheme!        |
|     The real-space optimization is not efficient for small cells and it     |
|     is also less accurate ...                                               |
|     Therefore, set LREAL=.FALSE. in the INCAR file.                         |
|                                                                             |
 -----------------------------------------------------------------------------

 LDA part: xc-table for (Slater+PW92), standard interpolation
 POSCAR, INCAR and KPOINTS ok, starting setup
 FFT: planning ... GRIDC
 FFT: planning ... GRID_SOFT
 FFT: planning ... GRID
 WAVECAR not read
 entering main loop
       N       E                     dE             d eps       ncg     rms          rms(c)
DAV:   1     0.182612531660E+04    0.18261E+04   -0.68425E+04  7632   0.232E+03
DAV:   2     0.216455932310E+03   -0.16097E+04   -0.15263E+04  6688   0.715E+02
DAV:   3    -0.241595223855E+02   -0.24062E+03   -0.22396E+03  6944   0.252E+02
DAV:   4    -0.387708564994E+02   -0.14611E+02   -0.14453E+02  7416   0.633E+01
DAV:   5    -0.391701010370E+02   -0.39924E+00   -0.39753E+00  8984   0.105E+01    0.340E+01
RMM:   6    -0.713160234524E+02   -0.32146E+02   -0.12517E+02  6917   0.539E+01    0.883E+01
RMM:   7    -0.477615072514E+02    0.23555E+02   -0.15753E+01  7252   0.200E+01    0.390E+01
RMM:   8    -0.406935950367E+02    0.70679E+01   -0.14995E+01  7126   0.169E+01    0.296E+01
RMM:   9    -0.365183460662E+02    0.41752E+01   -0.26250E+00  6876   0.719E+00    0.956E+00
RMM:  10    -0.368953164621E+02   -0.37697E+00   -0.13597E+00  6874   0.678E+00    0.732E+00
RMM:  11    -0.367859718218E+02    0.10934E+00   -0.62521E-01  7302   0.351E+00    0.642E+00
RMM:  12    -0.366203440989E+02    0.16563E+00   -0.14834E-01  7119   0.216E+00    0.146E+00
RMM:  13    -0.366260155099E+02   -0.56714E-02   -0.15500E-02  6990   0.608E-01    0.117E+00
RMM:  14    -0.366247490978E+02    0.12664E-02   -0.57926E-03  6224   0.399E-01    0.671E-01
RMM:  15    -0.366228040963E+02    0.19450E-02   -0.33687E-03  5780   0.313E-01    0.286E-01
RMM:  16    -0.366207998267E+02    0.20043E-02   -0.89803E-04  4851   0.174E-01    0.138E-01
RMM:  17    -0.366208048203E+02   -0.49936E-05   -0.30715E-04  4168   0.895E-02
   1 F= -.36620805E+02 E0= -.36620805E+02  d E =-.366208E+02  mag=     3.4483
 curvature:   0.00 expect dE= 0.000E+00 dE for cont linesearch  0.000E+00
 trial: gam= 0.00000 g(F)=  0.263E-02 g(S)=  0.448E-02 ort = 0.000E+00 (trialstep = 0.100E+01)
 search vector abs. value=  0.711E-02
 bond charge predicted
 -----------------------------------------------------------------------------
|                                                                             |
|           W    W    AA    RRRRR   N    N  II  N    N   GGGG   !!!           |
|           W    W   A  A   R    R  NN   N  II  NN   N  G    G  !!!           |
|           W    W  A    A  R    R  N N  N  II  N N  N  G       !!!           |
|           W WW W  AAAAAA  RRRRR   N  N N  II  N  N N  G  GGG   !            |
|           WW  WW  A    A  R   R   N   NN  II  N   NN  G    G                |
|           W    W  A    A  R    R  N    N  II  N    N   GGGG   !!!           |
|                                                                             |
|     Tetrahedron method does not include variations of the Fermi             |
|     occupations, so forces and stress will be inaccurate. We suggest        |
|     using a different smearing scheme ISMEAR = 1 or 2 for metals in         |
|     relaxations.                                                            |
|                                                                             |
 -----------------------------------------------------------------------------

       N       E                     dE             d eps       ncg     rms          rms(c)
DAV:   1    -0.369006750240E+02   -0.27988E+00   -0.39324E+00  7488   0.343E+01    0.635E+00
RMM:   2    -0.376087851320E+02   -0.70811E+00   -0.40145E+00  7224   0.118E+01    0.116E+01
RMM:   3    -0.367612292088E+02    0.84756E+00   -0.11662E+00  7264   0.574E+00    0.540E+00
RMM:   4    -0.366487623082E+02    0.11247E+00   -0.18331E-01  7182   0.259E+00    0.180E+00
RMM:   5    -0.366302216929E+02    0.18541E-01   -0.37480E-02  7224   0.111E+00    0.891E-01
RMM:   6    -0.366257300601E+02    0.44916E-02   -0.66019E-03  6870   0.477E-01    0.557E-01
RMM:   7    -0.366228460103E+02    0.28840E-02   -0.26548E-03  6336   0.276E-01    0.175E-01
RMM:   8    -0.366246539380E+02   -0.18079E-02   -0.61269E-04  4428   0.135E-01    0.887E-02
RMM:   9    -0.366248622350E+02   -0.20830E-03   -0.19023E-04  4076   0.793E-02
   2 F= -.36624862E+02 E0= -.36624862E+02  d E =-.405741E-02  mag=     3.4096
 trial-energy change:   -0.004057  1 .order   -0.001777   -0.007106    0.003553
 step:   0.8396(harm=  0.6667)  dis= 0.00546  next Energy=   -36.625138 (dE=-0.433E-02)
 bond charge predicted
 -----------------------------------------------------------------------------
|                                                                             |
|           W    W    AA    RRRRR   N    N  II  N    N   GGGG   !!!           |
|           W    W   A  A   R    R  NN   N  II  NN   N  G    G  !!!           |
|           W    W  A    A  R    R  N N  N  II  N N  N  G       !!!           |
|           W WW W  AAAAAA  RRRRR   N  N N  II  N  N N  G  GGG   !            |
|           WW  WW  A    A  R   R   N   NN  II  N   NN  G    G                |
|           W    W  A    A  R    R  N    N  II  N    N   GGGG   !!!           |
|                                                                             |
|     Tetrahedron method does not include variations of the Fermi             |
|     occupations, so forces and stress will be inaccurate. We suggest        |
|     using a different smearing scheme ISMEAR = 1 or 2 for metals in         |
|     relaxations.                                                            |
|                                                                             |
 -----------------------------------------------------------------------------

       N       E                     dE             d eps       ncg     rms          rms(c)
DAV:   1    -0.366314269558E+02   -0.67730E-02   -0.10117E-01  7392   0.548E+00    0.100E+00
RMM:   2    -0.366546725478E+02   -0.23246E-01   -0.92584E-02  7143   0.180E+00    0.232E+00
RMM:   3    -0.366303508442E+02    0.24322E-01   -0.32162E-02  6600   0.920E-01    0.111E+00
RMM:   4    -0.366251577252E+02    0.51931E-02   -0.59119E-03  6265   0.474E-01    0.199E-01
RMM:   5    -0.366253283201E+02   -0.17059E-03   -0.60525E-04  4438   0.159E-01
   3 F= -.36625328E+02 E0= -.36625328E+02  d E =-.452350E-02  mag=     3.4131
 curvature:  -0.24 expect dE=-0.165E-02 dE for cont linesearch -0.118E-03
 trial: gam= 0.69154 g(F)=  0.582E-02 g(S)=  0.952E-03 ort = 0.185E-02 (trialstep = 0.540E+00)
 search vector abs. value=  0.127E-01
 reached required accuracy - stopping structural energy minimisation
 -----------------------------------------------------------------------------
|                                                                             |
|           W    W    AA    RRRRR   N    N  II  N    N   GGGG   !!!           |
|           W    W   A  A   R    R  NN   N  II  NN   N  G    G  !!!           |
|           W    W  A    A  R    R  N N  N  II  N N  N  G       !!!           |
|           W WW W  AAAAAA  RRRRR   N  N N  II  N  N N  G  GGG   !            |
|           WW  WW  A    A  R   R   N   NN  II  N   NN  G    G                |
|           W    W  A    A  R    R  N    N  II  N    N   GGGG   !!!           |
|                                                                             |
|     Tetrahedron method does not include variations of the Fermi             |
|     occupations, so forces and stress will be inaccurate. We suggest        |
|     using a different smearing scheme ISMEAR = 1 or 2 for metals in         |
|     relaxations.                                                            |
|                                                                             |
 -----------------------------------------------------------------------------

