<?xml version="1.0" encoding="ISO-8859-1"?>
<modeling>
 <generator>
  <i name="program" type="string">vasp </i>
  <i name="version" type="string">6.4.3  </i>
  <i name="subversion" type="string">19Mar24 (build Feb 19 2025 12:53:47) complex                          parallel </i>
  <i name="platform" type="string">LinuxNV </i>
  <i name="date" type="string">2025 04 25 </i>
  <i name="time" type="string">11:31:48 </i>
 </generator>
 <incar>
  <i type="string" name="PREC">Accurate</i>
  <i type="string" name="ALGO">Fast</i>
  <i type="int" name="ISPIN">     2</i>
  <i type="int" name="NELM">   100</i>
  <i type="int" name="IBRION">     2</i>
  <i name="EDIFF">      0.00040000</i>
  <i type="int" name="NSW">    99</i>
  <i type="int" name="ISIF">     3</i>
  <i name="ENCUT">    520.00000000</i>
  <v name="MAGMOM">      5.00000000      0.60000000      0.60000000      0.60000000      0.60000000      5.00000000      0.60000000      0.60000000</v>
  <i type="string" name="LREAL">Auto</i>
  <i type="int" name="ISMEAR">    -5</i>
  <i name="SIGMA">      0.05000000</i>
  <i type="int" name="LMAXMIX">     4</i>
  <i type="logical" name="LWAVE"> F  </i>
  <i type="int" name="LORBIT">    11</i>
  <i type="logical" name="LASPH"> T  </i>
 </incar>
 <primitive_cell>
  <structure name="primitive_cell" >
   <crystal>
    <varray name="basis" >
     <v>       7.19452300      -2.18113200       0.00000000 </v>
     <v>       7.19452300       2.18113200       0.00000000 </v>
     <v>       6.53327900       0.00000000       3.71951200 </v>
    </varray>
    <i name="volume">    116.73468470 </i>
    <varray name="rec_basis" >
     <v>       0.06949731      -0.22923876      -0.12207121 </v>
     <v>       0.06949731       0.22923876      -0.12207121 </v>
     <v>      -0.00000000       0.00000000       0.26885247 </v>
    </varray>
   </crystal>
   <varray name="positions" >
    <v>       0.00000000       0.00000000       0.00000000 </v>
    <v>       0.37636200       0.37636200       0.37636200 </v>
    <v>       0.87391800       0.87391800       0.87391800 </v>
    <v>       0.62363800       0.62363800       0.62363800 </v>
    <v>       0.12608200       0.12608200       0.12608200 </v>
    <v>       0.50000000       0.50000000       0.50000000 </v>
    <v>       0.75044200       0.75044200       0.75044200 </v>
    <v>       0.24955800       0.24955800       0.24955800 </v>
   </varray>
  </structure>
  <varray name="primitive_index" >
   <v type="int" >        1 </v>
   <v type="int" >        2 </v>
   <v type="int" >        3 </v>
   <v type="int" >        4 </v>
   <v type="int" >        5 </v>
   <v type="int" >        6 </v>
   <v type="int" >        7 </v>
   <v type="int" >        8 </v>
  </varray>
 </primitive_cell>
 <kpoints>
  <generation param="Gamma">
   <v type="int" name="divisions">       5        5        5 </v>
   <v name="usershift">      0.00000000       0.00000000       0.00000000 </v>
   <v name="genvec1">      0.20000000      -0.00000000       0.00000000 </v>
   <v name="genvec2">     -0.00000000       0.20000000       0.00000000 </v>
   <v name="genvec3">      0.00000000       0.00000000       0.20000000 </v>
   <v name="shift">      0.00000000       0.00000000       0.00000000 </v>
  </generation>
  <varray name="kpointlist" >
   <v>       0.00000000       0.00000000       0.00000000 </v>
   <v>       0.20000000       0.00000000       0.00000000 </v>
   <v>       0.40000000       0.00000000       0.00000000 </v>
   <v>       0.20000000       0.20000000       0.00000000 </v>
   <v>       0.40000000       0.20000000       0.00000000 </v>
   <v>      -0.40000000       0.20000000       0.00000000 </v>
   <v>      -0.20000000       0.20000000       0.00000000 </v>
   <v>       0.40000000       0.40000000       0.00000000 </v>
   <v>      -0.40000000       0.40000000       0.00000000 </v>
   <v>       0.20000000       0.20000000       0.20000000 </v>
   <v>       0.40000000       0.20000000       0.20000000 </v>
   <v>      -0.40000000       0.20000000       0.20000000 </v>
   <v>      -0.20000000       0.20000000       0.20000000 </v>
   <v>       0.40000000       0.40000000       0.20000000 </v>
   <v>      -0.40000000       0.40000000       0.20000000 </v>
   <v>      -0.20000000       0.40000000       0.20000000 </v>
   <v>      -0.40000000      -0.40000000       0.20000000 </v>
   <v>       0.40000000       0.40000000       0.40000000 </v>
   <v>      -0.40000000       0.40000000       0.40000000 </v>
  </varray>
  <varray name="weights" >
   <v>       0.00800000 </v>
   <v>       0.04800000 </v>
   <v>       0.04800000 </v>
   <v>       0.04800000 </v>
   <v>       0.09600000 </v>
   <v>       0.09600000 </v>
   <v>       0.04800000 </v>
   <v>       0.04800000 </v>
   <v>       0.04800000 </v>
   <v>       0.01600000 </v>
   <v>       0.04800000 </v>
   <v>       0.04800000 </v>
   <v>       0.04800000 </v>
   <v>       0.04800000 </v>
   <v>       0.09600000 </v>
   <v>       0.09600000 </v>
   <v>       0.04800000 </v>
   <v>       0.01600000 </v>
   <v>       0.04800000 </v>
  </varray>
  <varray name="tetrahedronlist"  type="int" >
   <v type="int" >       12       10       11       14       18 </v>
   <v type="int" >       12       11       14       15       19 </v>
   <v type="int" >       12       11       12       15       19 </v>
   <v type="int" >       12       11       14       18       19 </v>
   <v type="int" >       12       12       15       16       17 </v>
   <v type="int" >       12       12       13       16       17 </v>
   <v type="int" >       12       12       15       17       19 </v>
   <v type="int" >       12        5        8       13       16 </v>
   <v type="int" >       12        4        5        8       13 </v>
   <v type="int" >       12        8       13       16       17 </v>
   <v type="int" >       12        4        5       11       14 </v>
   <v type="int" >       12        4       10       11       14 </v>
   <v type="int" >       12        4        5        8       14 </v>
   <v type="int" >       12       14       15       17       19 </v>
   <v type="int" >       12       14       15       19       19 </v>
   <v type="int" >       12       14       18       19       19 </v>
   <v type="int" >       12       15       15       16       17 </v>
   <v type="int" >        6       15       15       16       16 </v>
   <v type="int" >       12       15       15       17       19 </v>
   <v type="int" >        6       15       15       19       19 </v>
   <v type="int" >       12        6        9       16       16 </v>
   <v type="int" >       12        5        6        9       16 </v>
   <v type="int" >       12        5        8        9       16 </v>
   <v type="int" >       12        9       15       16       16 </v>
   <v type="int" >       12        9       15       16       17 </v>
   <v type="int" >       12        8        9       16       17 </v>
   <v type="int" >       12        5        6       12       15 </v>
   <v type="int" >       12        5       11       12       15 </v>
   <v type="int" >       12        5       11       14       15 </v>
   <v type="int" >       12        5        6        9       15 </v>
   <v type="int" >       12        5        8        9       15 </v>
   <v type="int" >       12        5        8       14       15 </v>
   <v type="int" >       12        6        7       13       16 </v>
   <v type="int" >       12        6        6        7       16 </v>
   <v type="int" >       12        6        6        9       16 </v>
   <v type="int" >       12        6       12       13       16 </v>
   <v type="int" >       12        6       12       15       16 </v>
   <v type="int" >       12        6        9       15       16 </v>
   <v type="int" >       12        2        3        7       13 </v>
   <v type="int" >       12        3        6        7       13 </v>
   <v type="int" >       12        3        6       12       13 </v>
   <v type="int" >       12        2        4        5        7 </v>
   <v type="int" >       12        4        5        7       13 </v>
   <v type="int" >       12        5        7       13       16 </v>
   <v type="int" >       12        2        3        5        7 </v>
   <v type="int" >       12        3        5        6        7 </v>
   <v type="int" >       12        5        6        7       16 </v>
   <v type="int" >       12        2        4       10       11 </v>
   <v type="int" >       12        2        4        5       11 </v>
   <v type="int" >       12        2        3        5       11 </v>
   <v type="int" >        6       18       18       19       19 </v>
   <v type="int" >       12        8        9       15       17 </v>
   <v type="int" >       12        8        8        9       17 </v>
   <v type="int" >       12        8       14       15       17 </v>
   <v type="int" >       12        3        3        6       12 </v>
   <v type="int" >       12        3        5        6       12 </v>
   <v type="int" >       12        3        5       11       12 </v>
   <v type="int" >       12        3        5        6        6 </v>
   <v type="int" >       12        5        6        6       16 </v>
   <v type="int" >        6        6        6       16       16 </v>
   <v type="int" >        6        3        3        6        6 </v>
   <v type="int" >       12        1        2        4       10 </v>
   <v type="int" >       12        2        2        4        7 </v>
   <v type="int" >       12        2        4        7       13 </v>
   <v type="int" >       12        1        2        2        4 </v>
  </varray>
  <i name="volumeweight">      0.00133333 </i>
 </kpoints>
 <parameters>
  <separator name="general" >
   <i type="string" name="SYSTEM">unknown system</i>
   <i type="logical" name="LCOMPAT"> F  </i>
  </separator>
  <separator name="electronic" >
   <i type="string" name="PREC">accura</i>
   <i name="ENMAX">    520.00000000</i>
   <i name="ENAUG">    758.23300000</i>
   <i name="EDIFF">      0.00040000</i>
   <i type="int" name="IALGO">    68</i>
   <i type="int" name="IWAVPR">    11</i>
   <i type="int" name="NBANDS">    88</i>
   <i type="int" name="NBANDSLOW">    -1</i>
   <i type="int" name="NBANDSHIGH">    -1</i>
   <i name="NELECT">    124.00000000</i>
   <i type="int" name="TURBO">     0</i>
   <i type="int" name="IRESTART">     0</i>
   <i type="int" name="NREBOOT">     0</i>
   <i type="int" name="NMIN">     0</i>
   <i name="EREF">      0.00000000</i>
   <separator name="electronic smearing" >
    <i type="int" name="ISMEAR">    -5</i>
    <i name="SIGMA">      0.05000000</i>
    <i name="KSPACING">      0.50000000</i>
    <i type="logical" name="KGAMMA"> T  </i>
    <i type="logical" name="KBLOWUP"> T  </i>
   </separator>
   <separator name="electronic projectors" >
    <i type="logical" name="LREAL"> T  </i>
    <v name="ROPT">     -0.00025000     -0.00025000     -0.00025000     -0.00025000</v>
    <i type="int" name="LMAXPAW">  -100</i>
    <i type="int" name="LMAXMIX">     4</i>
    <i type="logical" name="NLSPLINE"> F  </i>
   </separator>
   <separator name="electronic startup" >
    <i type="int" name="ISTART">     0</i>
    <i type="int" name="ICHARG">     2</i>
    <i type="int" name="INIWAV">     1</i>
   </separator>
   <separator name="electronic spin" >
    <i type="int" name="ISPIN">     2</i>
    <i type="logical" name="LNONCOLLINEAR"> F  </i>
    <v name="MAGMOM">      5.00000000      0.60000000      0.60000000      0.60000000      0.60000000      5.00000000      0.60000000      0.60000000</v>
    <i name="NUPDOWN">     -1.00000000</i>
    <i type="logical" name="LSORBIT"> F  </i>
    <v name="SAXIS">      0.00000000      0.00000000      1.00000000</v>
    <i type="logical" name="LSPIRAL"> F  </i>
    <v name="QSPIRAL">      0.00000000      0.00000000      0.00000000</v>
    <i type="logical" name="LZEROZ"> F  </i>
   </separator>
   <separator name="electronic exchange-correlation" >
    <i type="logical" name="LASPH"> T  </i>
   </separator>
   <separator name="electronic convergence" >
    <i type="int" name="NELM">   100</i>
    <i type="int" name="NELMDL">    -5</i>
    <i type="int" name="NELMIN">     2</i>
    <i name="ENINI">    520.00000000</i>
    <separator name="electronic convergence detail" >
     <i type="logical" name="LDIAG"> T  </i>
     <i type="logical" name="LSUBROT"> F  </i>
     <i name="WEIMIN">      0.00100000</i>
     <i name="EBREAK">      0.00000114</i>
     <i name="DEPER">      0.30000000</i>
     <i type="int" name="NRMM">     4</i>
     <i name="TIME">      0.40000000</i>
    </separator>
   </separator>
   <separator name="electronic mixer" >
    <i name="AMIX">      0.40000000</i>
    <i name="BMIX">      1.00000000</i>
    <i name="AMIN">      0.10000000</i>
    <i name="AMIX_MAG">      1.60000000</i>
    <i name="BMIX_MAG">      1.00000000</i>
    <separator name="electronic mixer details" >
     <i type="int" name="IMIX">     4</i>
     <i type="logical" name="MIXFIRST"> F  </i>
     <i type="int" name="MAXMIX">   -45</i>
     <i name="WC">    100.00000000</i>
     <i type="int" name="INIMIX">     1</i>
     <i type="int" name="MIXPRE">     1</i>
     <i type="int" name="MREMOVE">     5</i>
    </separator>
   </separator>
   <separator name="electronic dipolcorrection" >
    <i type="logical" name="LDIPOL"> F  </i>
    <i type="logical" name="LMONO"> F  </i>
    <i type="int" name="IDIPOL">     0</i>
    <i name="EPSILON">      1.00000000</i>
    <v name="DIPOL">   -100.00000000   -100.00000000   -100.00000000</v>
    <i name="EFIELD">      0.00000000</i>
    <i type="logical" name="LVACPOTAV"> F  </i>
   </separator>
  </separator>
  <separator name="grids" >
   <i type="int" name="NGX">    56</i>
   <i type="int" name="NGY">    56</i>
   <i type="int" name="NGZ">    56</i>
   <i type="int" name="NGXF">   112</i>
   <i type="int" name="NGYF">   112</i>
   <i type="int" name="NGZF">   112</i>
   <i type="logical" name="ADDGRID"> F  </i>
  </separator>
  <separator name="ionic" >
   <i type="int" name="NSW">    99</i>
   <i type="int" name="IBRION">     2</i>
   <i type="int" name="MDALGO">     0</i>
   <i type="int" name="ISIF">     3</i>
   <i name="PSTRESS">      0.00000000</i>
   <i name="EDIFFG">      0.00400000</i>
   <i type="int" name="NFREE">     1</i>
   <i name="POTIM">      0.50000000</i>
   <i name="SMASS">     -3.00000000</i>
   <i name="SCALEE">      1.00000000</i>
  </separator>
  <separator name="ionic md" >
   <i name="TEBEG">      0.00010000</i>
   <i name="TEEND">      0.00010000</i>
   <i type="int" name="NBLOCK">     1</i>
   <i type="int" name="KBLOCK">    99</i>
   <i type="int" name="NPACO">   256</i>
   <i name="APACO">     10.00000000</i>
  </separator>
  <separator name="symmetry" >
   <i type="int" name="ISYM">     2</i>
   <i name="SYMPREC">      0.00001000</i>
  </separator>
  <separator name="dos" >
   <i type="int" name="LORBIT">    11</i>
   <v name="RWIGS">     -1.00000000     -1.00000000     -1.00000000     -1.00000000</v>
   <i type="int" name="NEDOS">   301</i>
   <i name="EMIN">     10.00000000</i>
   <i name="EMAX">    -10.00000000</i>
   <i name="EFERMI">      0.00000000</i>
  </separator>
  <separator name="writing" >
   <i type="int" name="NWRITE">     2</i>
   <i type="logical" name="LWAVE"> F  </i>
   <i type="logical" name="LDOWNSAMPLE"> F  </i>
   <i type="logical" name="LCHARG"> T  </i>
   <i type="logical" name="LPARD"> F  </i>
   <i type="logical" name="LVTOT"> F  </i>
   <i type="logical" name="LVHAR"> F  </i>
   <i type="logical" name="LELF"> F  </i>
   <i type="logical" name="LOPTICS"> F  </i>
   <v name="STM">      0.00000000      0.00000000      0.00000000      0.00000000      0.00000000      0.00000000      0.00000000</v>
  </separator>
  <separator name="performance" >
   <i type="int" name="NPAR">     8</i>
   <i type="int" name="NSIM">     4</i>
   <i type="int" name="NBLK">    -1</i>
   <i type="logical" name="LPLANE"> T  </i>
   <i type="logical" name="LSCALAPACK"> T  </i>
   <i type="logical" name="LSCAAWARE"> F  </i>
   <i type="logical" name="LSCALU"> F  </i>
   <i type="logical" name="LASYNC"> F  </i>
   <i type="logical" name="LORBITALREAL"> F  </i>
  </separator>
  <separator name="miscellaneous" >
   <i type="int" name="IDIOT">     3</i>
   <i type="int" name="PHON_NSTRUCT">    -1</i>
   <i type="logical" name="LMUSIC"> F  </i>
   <v name="POMASS">     51.99600000     63.54600000     58.69000000    118.71000000</v>
   <v name="DARWINR">      0.00000000      0.00000000      0.00000000      0.00000000</v>
   <v name="DARWINV">      1.00000000      1.00000000      1.00000000      1.00000000</v>
   <i type="logical" name="LCORR"> T  </i>
  </separator>
  <i type="logical" name="GGA_COMPAT"> T  </i>
  <i type="logical" name="LBERRY"> F  </i>
  <i type="int" name="ICORELEVEL">     0</i>
  <i type="logical" name="LDAU"> F  </i>
  <i type="int" name="I_CONSTRAINED_M">     0</i>
  <separator name="electronic exchange-correlation" >
   <i type="string" name="GGA    ">PE</i>
   <i type="string" name="XC_C">1</i>
   <i type="int" name="VOSKOWN">     0</i>
   <i type="logical" name="LHFCALC"> F  </i>
   <i type="string" name="PRECFOCK"></i>
   <i type="logical" name="LSYMGRAD"> F  </i>
   <i type="logical" name="LHFONE"> F  </i>
   <i type="logical" name="LRHFCALC"> F  </i>
   <i type="logical" name="LTHOMAS"> F  </i>
   <i type="logical" name="LMODELHF"> F  </i>
   <i type="logical" name="LFOCKACE"> F  </i>
   <i name="ENCUT4O">     -1.00000000</i>
   <i type="int" name="EXXOEP">     0</i>
   <i type="int" name="FOURORBIT">     0</i>
   <i name="AEXX">      0.00000000</i>
   <i name="HFALPHA">      0.00000000</i>
   <i name="MCALPHA">      0.00000000</i>
   <i name="ALDAX">      1.00000000</i>
   <i name="AGGAX">      1.00000000</i>
   <i name="AMGGAX">      1.00000000</i>
   <i name="ALDAC">      1.00000000</i>
   <i name="AGGAC">      1.00000000</i>
   <i name="AMGGAC">      1.00000000</i>
   <i type="int" name="NKREDX">     1</i>
   <i type="int" name="NKREDY">     1</i>
   <i type="int" name="NKREDZ">     1</i>
   <i type="logical" name="SHIFTRED"> F  </i>
   <i type="logical" name="ODDONLY"> F  </i>
   <i type="logical" name="EVENONLY"> F  </i>
   <i type="int" name="LMAXFOCK">     0</i>
   <i type="int" name="NMAXFOCKAE">     0</i>
   <i type="logical" name="LFOCKAEDFT"> F  </i>
   <i name="HFSCREEN">      0.00000000</i>
   <i name="HFSCREENC">      0.00000000</i>
   <i type="int" name="NBANDSGWLOW">     0</i>
  </separator>
  <separator name="vdW DFT" >
   <i type="logical" name="LUSE_VDW"> F  </i>
   <i type="int" name="IVDW_NL">    -1</i>
   <i type="logical" name="LSPIN_VDW"> F  </i>
   <i name="ZAB_VDW">     -0.84910000</i>
   <i name="GAMMA_VDW">      1.39626340</i>
   <i name="ALPHA_VDW">      0.00000000</i>
   <i name="PARAM1">      0.12340000</i>
   <i name="PARAM2">      1.00000000</i>
   <i name="BPARAM">      6.30000000</i>
   <i name="CPARAM">      0.00930000</i>
  </separator>
  <separator name="model GW" >
   <i type="int" name="MODEL_GW">     0</i>
   <i name="MODEL_EPS0">      8.75510135</i>
   <i name="MODEL_ALPHA">      1.00000000</i>
  </separator>
  <separator name="linear response parameters" >
   <i type="logical" name="LEPSILON"> F  </i>
   <i type="logical" name="LRPA"> F  </i>
   <i type="logical" name="LNABLA"> F  </i>
   <i type="logical" name="LVEL"> F  </i>
   <i name="CSHIFT">      0.10000000</i>
   <i name="OMEGAMAX">     -1.00000000</i>
   <i name="DEG_THRESHOLD">      0.00200000</i>
   <i name="RTIME">     -0.10000000</i>
   <i name="WPLASMAI">      0.00000000</i>
   <v name="DFIELD">      0.00000000      0.00000000      0.00000000</v>
   <v name="WPLASMA">      0.00000000      0.00000000      0.00000000      0.00000000      0.00000000      0.00000000      0.00000000      0.00000000      0.00000000</v>
  </separator>
  <separator name="orbital magnetization" >
   <i type="logical" name="NUCIND"> F  </i>
   <v name="MAGPOS">      0.00000000      0.00000000      0.00000000</v>
   <i type="logical" name="LNICSALL"> T  </i>
   <i type="logical" name="ORBITALMAG"> F  </i>
   <i type="logical" name="LMAGBLOCH"> F  </i>
   <i type="logical" name="LCHIMAG"> F  </i>
   <i type="logical" name="LGAUGE"> T  </i>
   <i type="int" name="MAGATOM">     0</i>
   <v name="MAGDIPOL">      0.00000000      0.00000000      0.00000000</v>
   <v name="AVECCONST">      0.00000000      0.00000000      0.00000000</v>
  </separator>
  <separator name="response functions" >
   <i type="logical" name="LALL_IN_ONE"> F  </i>
   <i type="int" name="IALL_IN_ONE">    -1</i>
   <i type="int" name="NBANDS_WAVE">    -1</i>
   <i type="logical" name="LFINITE_TEMPERATURE"> F  </i>
   <i type="logical" name="LADDER"> F  </i>
   <i type="logical" name="LRPAFORCE"> F  </i>
   <i type="logical" name="LFXC"> F  </i>
   <i type="logical" name="LHARTREE"> T  </i>
   <i type="int" name="IBSE">     0</i>
   <v type="int" name="KPOINT">    -1     0     0     0</v>
   <i type="logical" name="LTCTC"> F  </i>
   <i type="logical" name="LTCTE"> F  </i>
   <i type="logical" name="LTETE"> F  </i>
   <i type="logical" name="LTRIPLET"> F  </i>
   <i type="logical" name="LFXCEPS"> F  </i>
   <i type="logical" name="LFXHEG"> F  </i>
   <i type="int" name="NATURALO">     2</i>
   <i type="logical" name="LHOLEGF"> F  </i>
   <i type="logical" name="L2ORDER"> F  </i>
   <i type="logical" name="LDMP1"> F  </i>
   <i type="logical" name="LMP2LT"> F  </i>
   <i type="logical" name="LSMP2LT"> F  </i>
   <i type="logical" name="LGWLF"> F  </i>
   <i name="ENCUTGW">     -1.60000002</i>
   <i name="ENCUTGWSOFT">     -1.60000002</i>
   <i name="ENCUTLF">     -1.00000000</i>
   <i type="logical" name="ESF_SPLINES"> F  </i>
   <i name="ESF_CONV">      0.01000000</i>
   <i type="int" name="ESF_NINTER">    15</i>
   <i type="int" name="LMAXMP2">    -1</i>
   <i name="SCISSOR">      0.00000000</i>
   <i type="int" name="NOMEGA">     0</i>
   <i type="int" name="NOMEGAR">     0</i>
   <i type="int" name="NBANDSGW">    -1</i>
   <i type="int" name="NBANDSO">    -1</i>
   <i type="int" name="NBANDSV">    -1</i>
   <i type="int" name="NELMGW">     1</i>
   <i type="int" name="NELMHF">     1</i>
   <i type="int" name="DIM">     3</i>
   <i type="int" name="IESPILON">     4</i>
   <i type="int" name="ANTIRES">     0</i>
   <i name="OMEGAMAX">    -30.00000000</i>
   <i name="OMEGAMIN">    -30.00000000</i>
   <i name="OMEGATL">   -200.00000000</i>
   <i type="int" name="OMEGAGRID">     0</i>
   <i name="CSHIFT">     -0.10000000</i>
   <i type="logical" name="LSELFENERGY"> F  </i>
   <i type="logical" name="LSPECTRAL"> F  </i>
   <i type="logical" name="LSPECTRALGW"> F  </i>
   <i type="logical" name="LSINGLES"> F  </i>
   <i type="logical" name="LFERMIGW"> F  </i>
   <i type="logical" name="ODDONLYGW"> F  </i>
   <i type="logical" name="EVENONLYGW"> F  </i>
   <i type="int" name="NKREDLFX">     1</i>
   <i type="int" name="NKREDLFY">     1</i>
   <i type="int" name="NKREDLFZ">     1</i>
   <i type="int" name="MAXMEM">  2800</i>
   <i type="int" name="TELESCOPE">     0</i>
   <i type="int" name="NTAUPAR">    -1</i>
   <i type="int" name="NOMEGAPAR">    -1</i>
   <i name="DAMP_NEWTON">      0.80000001</i>
   <i name="LAMBDA">      1.00000000</i>
  </separator>
  <separator name="External order field" >
   <i name="OFIELD_KAPPA">      0.00000000</i>
   <v name="OFIELD_K">      0.00000000      0.00000000      0.00000000</v>
   <i name="OFIELD_Q6_NEAR">      0.00000000</i>
   <i name="OFIELD_Q6_FAR">      0.00000000</i>
   <i name="OFIELD_A">      0.00000000</i>
  </separator>
  <separator name="optional k-points parameters" >
   <i type="int" name="KPOINTS_OPT_MODE">     1</i>
   <i type="logical" name="LKPOINTS_OPT"> F  </i>
  </separator>
 </parameters>
 <atominfo>
  <atoms>       8 </atoms>
  <types>       4 </types>
  <array name="atoms" >
   <dimension dim="1">ion</dimension>
   <field type="string">element</field>
   <field type="int">atomtype</field>
   <set>
    <rc><c>Cr</c><c>   1</c></rc>
    <rc><c>Cu</c><c>   2</c></rc>
    <rc><c>Cu</c><c>   2</c></rc>
    <rc><c>Cu</c><c>   2</c></rc>
    <rc><c>Cu</c><c>   2</c></rc>
    <rc><c>Ni</c><c>   3</c></rc>
    <rc><c>Sn</c><c>   4</c></rc>
    <rc><c>Sn</c><c>   4</c></rc>
   </set>
  </array>
  <array name="atomtypes" >
   <dimension dim="1">type</dimension>
   <field type="int">atomspertype</field>
   <field type="string">element</field>
   <field>mass</field>
   <field>valence</field>
   <field type="string">pseudopotential</field>
   <set>
    <rc><c>   1</c><c>Cr</c><c>     51.99600000</c><c>     12.00000000</c><c>  PAW_PBE Cr_pv 02Aug2007               </c></rc>
    <rc><c>   4</c><c>Cu</c><c>     63.54600000</c><c>     17.00000000</c><c>  PAW_PBE Cu_pv 06Sep2000               </c></rc>
    <rc><c>   1</c><c>Ni</c><c>     58.69000000</c><c>     16.00000000</c><c>  PAW_PBE Ni_pv 06Sep2000               </c></rc>
    <rc><c>   2</c><c>Sn</c><c>    118.71000000</c><c>     14.00000000</c><c>  PAW_PBE Sn_d 06Sep2000                </c></rc>
   </set>
  </array>
 </atominfo>
 <structure name="initialpos" >
  <crystal>
   <varray name="basis" >
    <v>       7.19452300      -2.18113200       0.00000000 </v>
    <v>       7.19452300       2.18113200       0.00000000 </v>
    <v>       6.53327900       0.00000000       3.71951200 </v>
   </varray>
   <i name="volume">    116.73468470 </i>
   <varray name="rec_basis" >
    <v>       0.06949731      -0.22923876      -0.12207121 </v>
    <v>       0.06949731       0.22923876      -0.12207121 </v>
    <v>      -0.00000000       0.00000000       0.26885247 </v>
   </varray>
  </crystal>
  <varray name="positions" >
   <v>       0.00000000       0.00000000       0.00000000 </v>
   <v>       0.37636200       0.37636200       0.37636200 </v>
   <v>       0.87391800       0.87391800       0.87391800 </v>
   <v>       0.62363800       0.62363800       0.62363800 </v>
   <v>       0.12608200       0.12608200       0.12608200 </v>
   <v>       0.50000000       0.50000000       0.50000000 </v>
   <v>       0.75044200       0.75044200       0.75044200 </v>
   <v>       0.24955800       0.24955800       0.24955800 </v>
  </varray>
 </structure>
 <calculation>
  <scstep>
   <time name="dav">    3.31    3.31</time>
   <time name="total">    6.36    6.85</time>
   <energy>
    <i name="alphaZ">    826.60186344 </i>
    <i name="ewald"> -16441.44888778 </i>
    <i name="hartreedc">  -7989.37681602 </i>
    <i name="XCdc">    697.88432466 </i>
    <i name="pawpsdc">  21273.75475424 </i>
    <i name="pawaedc"> -22133.60936895 </i>
    <i name="eentropy">      0.00000000 </i>
    <i name="bandstr">    176.86470613 </i>
    <i name="atom">  25415.45474088 </i>
    <i name="e_fr_energy">   1826.12531660 </i>
    <i name="e_wo_entrp">   1826.12531660 </i>
    <i name="e_0_energy">   1826.12531660 </i>
   </energy>
  </scstep>
  <scstep>
   <time name="dav">    2.49    2.49</time>
   <time name="total">    2.51    2.51</time>
   <energy>
    <i name="e_fr_energy">    216.45593231 </i>
    <i name="e_wo_entrp">    216.45593231 </i>
    <i name="e_0_energy">    216.45593231 </i>
   </energy>
  </scstep>
  <scstep>
   <time name="dav">    2.08    2.08</time>
   <time name="total">    2.09    2.09</time>
   <energy>
    <i name="e_fr_energy">    -24.15952239 </i>
    <i name="e_wo_entrp">    -24.15952239 </i>
    <i name="e_0_energy">    -24.15952239 </i>
   </energy>
  </scstep>
  <scstep>
   <time name="dav">    2.15    2.15</time>
   <time name="total">    2.16    2.16</time>
   <energy>
    <i name="e_fr_energy">    -38.77085650 </i>
    <i name="e_wo_entrp">    -38.77085650 </i>
    <i name="e_0_energy">    -38.77085650 </i>
   </energy>
  </scstep>
  <scstep>
   <time name="dav">    2.44    2.44</time>
   <time name="total">    2.55    2.55</time>
   <energy>
    <i name="e_fr_energy">    -39.17010104 </i>
    <i name="e_wo_entrp">    -39.17010104 </i>
    <i name="e_0_energy">    -39.17010104 </i>
   </energy>
  </scstep>
  <scstep>
   <time name="diag">    0.14    0.14</time>
   <time name="diis">    0.86    0.87</time>
   <time name="orth">    0.04    0.04</time>
   <time name="total">    1.57    1.58</time>
   <energy>
    <i name="e_fr_energy">    -71.31602345 </i>
    <i name="e_wo_entrp">    -71.31602345 </i>
    <i name="e_0_energy">    -71.31602345 </i>
   </energy>
  </scstep>
  <scstep>
   <time name="diag">    0.14    0.14</time>
   <time name="diis">    0.84    0.84</time>
   <time name="orth">    0.05    0.05</time>
   <time name="total">    1.52    1.52</time>
   <energy>
    <i name="e_fr_energy">    -47.76150725 </i>
    <i name="e_wo_entrp">    -47.76150725 </i>
    <i name="e_0_energy">    -47.76150725 </i>
   </energy>
  </scstep>
  <scstep>
   <time name="diag">    0.14    0.14</time>
   <time name="diis">    0.81    0.81</time>
   <time name="orth">    0.04    0.04</time>
   <time name="total">    1.49    1.49</time>
   <energy>
    <i name="e_fr_energy">    -40.69359504 </i>
    <i name="e_wo_entrp">    -40.69359504 </i>
    <i name="e_0_energy">    -40.69359504 </i>
   </energy>
  </scstep>
  <scstep>
   <time name="diag">    0.14    0.14</time>
   <time name="diis">    0.79    0.79</time>
   <time name="orth">    0.04    0.04</time>
   <time name="total">    1.47    1.47</time>
   <energy>
    <i name="e_fr_energy">    -36.51834607 </i>
    <i name="e_wo_entrp">    -36.51834607 </i>
    <i name="e_0_energy">    -36.51834607 </i>
   </energy>
  </scstep>
  <scstep>
   <time name="diag">    0.14    0.14</time>
   <time name="diis">    0.80    0.80</time>
   <time name="orth">    0.04    0.04</time>
   <time name="total">    1.51    1.51</time>
   <energy>
    <i name="e_fr_energy">    -36.89531646 </i>
    <i name="e_wo_entrp">    -36.89531646 </i>
    <i name="e_0_energy">    -36.89531646 </i>
   </energy>
  </scstep>
  <scstep>
   <time name="diag">    0.14    0.14</time>
   <time name="diis">    0.83    0.83</time>
   <time name="orth">    0.04    0.04</time>
   <time name="total">    1.53    1.53</time>
   <energy>
    <i name="e_fr_energy">    -36.78597182 </i>
    <i name="e_wo_entrp">    -36.78597182 </i>
    <i name="e_0_energy">    -36.78597182 </i>
   </energy>
  </scstep>
  <scstep>
   <time name="diag">    0.14    0.14</time>
   <time name="diis">    0.83    0.83</time>
   <time name="orth">    0.05    0.04</time>
   <time name="total">    1.51    1.52</time>
   <energy>
    <i name="e_fr_energy">    -36.62034410 </i>
    <i name="e_wo_entrp">    -36.62034410 </i>
    <i name="e_0_energy">    -36.62034410 </i>
   </energy>
  </scstep>
  <scstep>
   <time name="diag">    0.14    0.14</time>
   <time name="diis">    0.80    0.80</time>
   <time name="orth">    0.04    0.04</time>
   <time name="total">    1.49    1.49</time>
   <energy>
    <i name="e_fr_energy">    -36.62601551 </i>
    <i name="e_wo_entrp">    -36.62601551 </i>
    <i name="e_0_energy">    -36.62601551 </i>
   </energy>
  </scstep>
  <scstep>
   <time name="diag">    0.14    0.14</time>
   <time name="diis">    0.78    0.78</time>
   <time name="orth">    0.04    0.04</time>
   <time name="total">    1.45    1.45</time>
   <energy>
    <i name="e_fr_energy">    -36.62474910 </i>
    <i name="e_wo_entrp">    -36.62474910 </i>
    <i name="e_0_energy">    -36.62474910 </i>
   </energy>
  </scstep>
  <scstep>
   <time name="diag">    0.14    0.14</time>
   <time name="diis">    0.73    0.73</time>
   <time name="orth">    0.04    0.04</time>
   <time name="total">    1.41    1.41</time>
   <energy>
    <i name="e_fr_energy">    -36.62280410 </i>
    <i name="e_wo_entrp">    -36.62280410 </i>
    <i name="e_0_energy">    -36.62280410 </i>
   </energy>
  </scstep>
  <scstep>
   <time name="diag">    0.14    0.14</time>
   <time name="diis">    0.65    0.65</time>
   <time name="orth">    0.05    0.05</time>
   <time name="total">    1.36    1.36</time>
   <energy>
    <i name="e_fr_energy">    -36.62079983 </i>
    <i name="e_wo_entrp">    -36.62079983 </i>
    <i name="e_0_energy">    -36.62079983 </i>
   </energy>
  </scstep>
  <scstep>
   <time name="diag">    0.14    0.14</time>
   <time name="diis">    0.59    0.59</time>
   <time name="orth">    0.04    0.04</time>
   <time name="total">    1.20    1.20</time>
   <energy>
    <i name="alphaZ">    826.60186344 </i>
    <i name="ewald"> -16441.44888778 </i>
    <i name="hartreedc">  -7758.54026382 </i>
    <i name="XCdc">    686.14199963 </i>
    <i name="pawpsdc">  22877.29103547 </i>
    <i name="pawaedc"> -23759.00745105 </i>
    <i name="eentropy">      0.00000000 </i>
    <i name="bandstr">  -1883.11384160 </i>
    <i name="atom">  25415.45474088 </i>
    <i name="e_fr_energy">    -36.62080482 </i>
    <i name="e_wo_entrp">    -36.62080482 </i>
    <i name="e_0_energy">    -36.62080482 </i>
   </energy>
  </scstep>
  <structure>
   <crystal>
    <varray name="basis" >
     <v>       7.19452300      -2.18113200       0.00000000 </v>
     <v>       7.19452300       2.18113200       0.00000000 </v>
     <v>       6.53327900       0.00000000       3.71951200 </v>
    </varray>
    <i name="volume">    116.73468470 </i>
    <varray name="rec_basis" >
     <v>       0.06949731      -0.22923876      -0.12207121 </v>
     <v>       0.06949731       0.22923876      -0.12207121 </v>
     <v>      -0.00000000       0.00000000       0.26885247 </v>
    </varray>
   </crystal>
   <varray name="positions" >
    <v>       0.00000000       0.00000000       0.00000000 </v>
    <v>       0.37636200       0.37636200       0.37636200 </v>
    <v>       0.87391800       0.87391800       0.87391800 </v>
    <v>       0.62363800       0.62363800       0.62363800 </v>
    <v>       0.12608200       0.12608200       0.12608200 </v>
    <v>       0.50000000       0.50000000       0.50000000 </v>
    <v>       0.75044200       0.75044200       0.75044200 </v>
    <v>       0.24955800       0.24955800       0.24955800 </v>
   </varray>
  </structure>
  <varray name="forces" >
   <v>      -0.00000000      -0.00000000       0.00000000 </v>
   <v>       0.13473970      -0.00000000       0.02395364 </v>
   <v>      -0.07489704      -0.00000000      -0.01331498 </v>
   <v>      -0.13473970      -0.00000000      -0.02395364 </v>
   <v>       0.07489704      -0.00000000       0.01331498 </v>
   <v>      -0.00000000       0.00000000       0.00000000 </v>
   <v>      -0.05139953      -0.00000000      -0.00913766 </v>
   <v>       0.05139953      -0.00000000       0.00913766 </v>
  </varray>
  <varray name="stress" >
   <v>      -6.25959040      -0.00000000       0.15077997 </v>
   <v>      -0.00000000      -7.10773300       0.00000000 </v>
   <v>       0.15077997       0.00000000      -7.08092925 </v>
  </varray>
  <energy>
   <i name="e_fr_energy">    -36.62080482 </i>
   <i name="e_wo_entrp">    -36.62080482 </i>
   <i name="e_0_energy">    -36.62080482 </i>
  </energy>
  <time name="totalsc">   37.58   38.13</time>
 </calculation>
 <calculation>
  <scstep>
   <time name="dav">    2.16    2.16</time>
   <time name="total">    2.65    2.65</time>
   <energy>
    <i name="alphaZ">    834.07309100 </i>
    <i name="ewald"> -16488.03261902 </i>
    <i name="hartreedc">  -7784.55338171 </i>
    <i name="XCdc">    688.41968569 </i>
    <i name="pawpsdc">  22877.03896612 </i>
    <i name="pawaedc"> -23758.76602639 </i>
    <i name="eentropy">      0.00000000 </i>
    <i name="bandstr">  -1820.53513161 </i>
    <i name="atom">  25415.45474088 </i>
    <i name="e_fr_energy">    -36.90067502 </i>
    <i name="e_wo_entrp">    -36.90067502 </i>
    <i name="e_0_energy">    -36.90067502 </i>
   </energy>
  </scstep>
  <scstep>
   <time name="diag">    0.14    0.14</time>
   <time name="diis">    0.85    0.85</time>
   <time name="orth">    0.04    0.04</time>
   <time name="total">    1.53    1.53</time>
   <energy>
    <i name="e_fr_energy">    -37.60878513 </i>
    <i name="e_wo_entrp">    -37.60878513 </i>
    <i name="e_0_energy">    -37.60878513 </i>
   </energy>
  </scstep>
  <scstep>
   <time name="diag">    0.14    0.14</time>
   <time name="diis">    0.86    0.85</time>
   <time name="orth">    0.04    0.04</time>
   <time name="total">    1.57    1.57</time>
   <energy>
    <i name="e_fr_energy">    -36.76122921 </i>
    <i name="e_wo_entrp">    -36.76122921 </i>
    <i name="e_0_energy">    -36.76122921 </i>
   </energy>
  </scstep>
  <scstep>
   <time name="diag">    0.14    0.14</time>
   <time name="diis">    0.83    0.83</time>
   <time name="orth">    0.05    0.05</time>
   <time name="total">    1.56    1.57</time>
   <energy>
    <i name="e_fr_energy">    -36.64876231 </i>
    <i name="e_wo_entrp">    -36.64876231 </i>
    <i name="e_0_energy">    -36.64876231 </i>
   </energy>
  </scstep>
  <scstep>
   <time name="diag">    0.14    0.14</time>
   <time name="diis">    0.84    0.84</time>
   <time name="orth">    0.05    0.05</time>
   <time name="total">    1.52    1.52</time>
   <energy>
    <i name="e_fr_energy">    -36.63022169 </i>
    <i name="e_wo_entrp">    -36.63022169 </i>
    <i name="e_0_energy">    -36.63022169 </i>
   </energy>
  </scstep>
  <scstep>
   <time name="diag">    0.14    0.14</time>
   <time name="diis">    0.80    0.80</time>
   <time name="orth">    0.04    0.04</time>
   <time name="total">    1.48    1.48</time>
   <energy>
    <i name="e_fr_energy">    -36.62573006 </i>
    <i name="e_wo_entrp">    -36.62573006 </i>
    <i name="e_0_energy">    -36.62573006 </i>
   </energy>
  </scstep>
  <scstep>
   <time name="diag">    0.14    0.14</time>
   <time name="diis">    0.81    0.81</time>
   <time name="orth">    0.04    0.04</time>
   <time name="total">    1.48    1.48</time>
   <energy>
    <i name="e_fr_energy">    -36.62284601 </i>
    <i name="e_wo_entrp">    -36.62284601 </i>
    <i name="e_0_energy">    -36.62284601 </i>
   </energy>
  </scstep>
  <scstep>
   <time name="diag">    0.14    0.14</time>
   <time name="diis">    0.64    0.63</time>
   <time name="orth">    0.04    0.04</time>
   <time name="total">    1.31    1.31</time>
   <energy>
    <i name="e_fr_energy">    -36.62465394 </i>
    <i name="e_wo_entrp">    -36.62465394 </i>
    <i name="e_0_energy">    -36.62465394 </i>
   </energy>
  </scstep>
  <scstep>
   <time name="diag">    0.14    0.14</time>
   <time name="diis">    0.58    0.58</time>
   <time name="orth">    0.05    0.05</time>
   <time name="total">    1.20    1.20</time>
   <energy>
    <i name="alphaZ">    834.07309100 </i>
    <i name="ewald"> -16488.03261902 </i>
    <i name="hartreedc">  -7730.63115562 </i>
    <i name="XCdc">    686.30260065 </i>
    <i name="pawpsdc">  22918.37613817 </i>
    <i name="pawaedc"> -23800.47879536 </i>
    <i name="eentropy">      0.00000000 </i>
    <i name="bandstr">  -1871.68886293 </i>
    <i name="atom">  25415.45474088 </i>
    <i name="e_fr_energy">    -36.62486223 </i>
    <i name="e_wo_entrp">    -36.62486223 </i>
    <i name="e_0_energy">    -36.62486223 </i>
   </energy>
  </scstep>
  <structure>
   <crystal>
    <varray name="basis" >
     <v>       7.17473607      -2.17432049       0.00047662 </v>
     <v>       7.17473607       2.17432049       0.00047662 </v>
     <v>       6.51555708      -0.00000000       3.70837286 </v>
    </varray>
    <i name="volume">    115.68903126 </i>
    <varray name="rec_basis" >
     <v>       0.06969711      -0.22995690      -0.12245681 </v>
     <v>       0.06969711       0.22995690      -0.12245681 </v>
     <v>      -0.00001792       0.00000000       0.26969152 </v>
    </varray>
   </crystal>
   <varray name="positions" >
    <v>       1.00000000       1.00000000       0.00000000 </v>
    <v>       0.37667268       0.37667268       0.37667268 </v>
    <v>       0.87374530       0.87374530       0.87374530 </v>
    <v>       0.62332732       0.62332732       0.62332732 </v>
    <v>       0.12625470       0.12625470       0.12625470 </v>
    <v>       0.50000000       0.50000000       0.50000000 </v>
    <v>       0.75032348       0.75032348       0.75032348 </v>
    <v>       0.24967652       0.24967652       0.24967652 </v>
   </varray>
  </structure>
  <varray name="forces" >
   <v>      -0.00000000      -0.00000000      -0.00000000 </v>
   <v>       0.10072100      -0.00000000       0.01790589 </v>
   <v>      -0.04624311      -0.00000000      -0.00822097 </v>
   <v>      -0.10072100      -0.00000000      -0.01790589 </v>
   <v>       0.04624311      -0.00000000       0.00822097 </v>
   <v>      -0.00000000       0.00000000      -0.00000000 </v>
   <v>      -0.04541163      -0.00000000      -0.00807315 </v>
   <v>       0.04541163      -0.00000000       0.00807315 </v>
  </varray>
  <varray name="stress" >
   <v>       8.73245341      -0.00000000       0.07377769 </v>
   <v>      -0.00000000       8.31745537      -0.00000000 </v>
   <v>       0.07377769       0.00000000       8.33057309 </v>
  </varray>
  <energy>
   <i name="e_fr_energy">    -36.62486223 </i>
   <i name="e_wo_entrp">    -36.62486223 </i>
   <i name="e_0_energy">    -36.62486223 </i>
  </energy>
  <time name="totalsc">   18.04   18.04</time>
 </calculation>
 <calculation>
  <scstep>
   <time name="dav">    2.14    2.13</time>
   <time name="total">    2.63    2.62</time>
   <energy>
    <i name="alphaZ">    832.86857765 </i>
    <i name="ewald"> -16480.55079381 </i>
    <i name="hartreedc">  -7726.54628601 </i>
    <i name="XCdc">    685.94155646 </i>
    <i name="pawpsdc">  22918.75037581 </i>
    <i name="pawaedc"> -23800.87045805 </i>
    <i name="eentropy">      0.00000000 </i>
    <i name="bandstr">  -1881.67913990 </i>
    <i name="atom">  25415.45474088 </i>
    <i name="e_fr_energy">    -36.63142696 </i>
    <i name="e_wo_entrp">    -36.63142696 </i>
    <i name="e_0_energy">    -36.63142696 </i>
   </energy>
  </scstep>
  <scstep>
   <time name="diag">    0.14    0.14</time>
   <time name="diis">    0.83    0.83</time>
   <time name="orth">    0.05    0.05</time>
   <time name="total">    1.54    1.54</time>
   <energy>
    <i name="e_fr_energy">    -36.65467255 </i>
    <i name="e_wo_entrp">    -36.65467255 </i>
    <i name="e_0_energy">    -36.65467255 </i>
   </energy>
  </scstep>
  <scstep>
   <time name="diag">    0.14    0.14</time>
   <time name="diis">    0.80    0.80</time>
   <time name="orth">    0.05    0.05</time>
   <time name="total">    1.48    1.48</time>
   <energy>
    <i name="e_fr_energy">    -36.63035084 </i>
    <i name="e_wo_entrp">    -36.63035084 </i>
    <i name="e_0_energy">    -36.63035084 </i>
   </energy>
  </scstep>
  <scstep>
   <time name="diag">    0.14    0.14</time>
   <time name="diis">    0.76    0.76</time>
   <time name="orth">    0.04    0.04</time>
   <time name="total">    1.44    1.44</time>
   <energy>
    <i name="e_fr_energy">    -36.62515773 </i>
    <i name="e_wo_entrp">    -36.62515773 </i>
    <i name="e_0_energy">    -36.62515773 </i>
   </energy>
  </scstep>
  <scstep>
   <time name="diag">    0.14    0.14</time>
   <time name="diis">    0.62    0.62</time>
   <time name="orth">    0.04    0.04</time>
   <time name="total">    1.23    1.23</time>
   <energy>
    <i name="alphaZ">    832.86857765 </i>
    <i name="ewald"> -16480.55079381 </i>
    <i name="hartreedc">  -7734.79188228 </i>
    <i name="XCdc">    686.25940882 </i>
    <i name="pawpsdc">  22918.67123983 </i>
    <i name="pawaedc"> -23800.98506582 </i>
    <i name="eentropy">      0.00000000 </i>
    <i name="bandstr">  -1873.55155361 </i>
    <i name="atom">  25415.45474088 </i>
    <i name="e_fr_energy">    -36.62532832 </i>
    <i name="e_wo_entrp">    -36.62532832 </i>
    <i name="e_0_energy">    -36.62532832 </i>
   </energy>
  </scstep>
  <structure>
   <crystal>
    <varray name="basis" >
     <v>       7.17791010      -2.17541312       0.00040017 </v>
     <v>       7.17791010       2.17541312       0.00040017 </v>
     <v>       6.51839986      -0.00000000       3.71015969 </v>
    </varray>
    <i name="volume">    115.85634335 </i>
    <varray name="rec_basis" >
     <v>       0.06966498      -0.22984140      -0.12239479 </v>
     <v>       0.06966498       0.22984140      -0.12239479 </v>
     <v>      -0.00001503      -0.00000000       0.26955658 </v>
    </varray>
   </crystal>
   <varray name="positions" >
    <v>       0.00000000       0.00000000       0.00000000 </v>
    <v>       0.37662271       0.37662271       0.37662271 </v>
    <v>       0.87377308       0.87377308       0.87377308 </v>
    <v>       0.62337729       0.62337729       0.62337729 </v>
    <v>       0.12622692       0.12622692       0.12622692 </v>
    <v>       0.50000000       0.50000000       0.50000000 </v>
    <v>       0.75034255       0.75034255       0.75034255 </v>
    <v>       0.24965745       0.24965745       0.24965745 </v>
   </varray>
  </structure>
  <varray name="forces" >
   <v>       0.00000000      -0.00000000       0.00000000 </v>
   <v>       0.19828534      -0.00000000       0.03525061 </v>
   <v>      -0.11787956      -0.00000000      -0.02095630 </v>
   <v>      -0.19828534      -0.00000000      -0.03525061 </v>
   <v>       0.11787956      -0.00000000       0.02095630 </v>
   <v>       0.00000000       0.00000000       0.00000000 </v>
   <v>      -0.07226563      -0.00000000      -0.01284718 </v>
   <v>       0.07226563      -0.00000000       0.01284718 </v>
  </varray>
  <varray name="stress" >
   <v>       3.35926940      -0.00000000       0.05140123 </v>
   <v>       0.00000000       3.07013758       0.00000000 </v>
   <v>       0.05140123       0.00000000       3.07927619 </v>
  </varray>
  <energy>
   <i name="e_fr_energy">    -36.62532832 </i>
   <i name="e_wo_entrp">    -36.62532832 </i>
   <i name="e_0_energy">    -36.62532832 </i>
  </energy>
  <time name="totalsc">   11.77   11.80</time>
  <eigenvalues>
   <array>
    <dimension dim="1">band</dimension>
    <dimension dim="2">kpoint</dimension>
    <dimension dim="3">spin</dimension>
    <field>eigene</field>
    <field>occ</field>
    <set>
     <set comment="spin 1">
      <set comment="kpoint 1">
       <r>  -61.6306    1.0000 </r>
       <r>  -61.6306    1.0000 </r>
       <r>  -61.6280    1.0000 </r>
       <r>  -61.6280    1.0000 </r>
       <r>  -61.5905    1.0000 </r>
       <r>  -61.5885    1.0000 </r>
       <r>  -61.5579    1.0000 </r>
       <r>  -61.5554    1.0000 </r>
       <r>  -61.4701    1.0000 </r>
       <r>  -61.4701    1.0000 </r>
       <r>  -61.4669    1.0000 </r>
       <r>  -61.4669    1.0000 </r>
       <r>  -53.9225    1.0000 </r>
       <r>  -53.9225    1.0000 </r>
       <r>  -53.8933    1.0000 </r>
       <r>  -35.0642    1.0000 </r>
       <r>  -35.0075    1.0000 </r>
       <r>  -35.0075    1.0000 </r>
       <r>  -12.6633    1.0000 </r>
       <r>  -12.6632    1.0000 </r>
       <r>  -12.6561    1.0000 </r>
       <r>  -12.6561    1.0000 </r>
       <r>  -12.6472    1.0000 </r>
       <r>  -12.6472    1.0000 </r>
       <r>  -12.6189    1.0000 </r>
       <r>  -12.6189    1.0000 </r>
       <r>  -12.6142    1.0000 </r>
       <r>  -12.6142    1.0000 </r>
       <r>   -2.2029    1.0000 </r>
       <r>   -0.0827    1.0000 </r>
       <r>    1.9866    1.0000 </r>
       <r>    4.4771    1.0000 </r>
       <r>    4.4783    1.0000 </r>
       <r>    4.4783    1.0000 </r>
       <r>    4.5561    1.0000 </r>
       <r>    4.5561    1.0000 </r>
       <r>    4.8964    1.0000 </r>
       <r>    4.8964    1.0000 </r>
       <r>    5.2315    1.0000 </r>
       <r>    5.3368    1.0000 </r>
       <r>    5.3368    1.0000 </r>
       <r>    5.4062    1.0000 </r>
       <r>    5.4062    1.0000 </r>
       <r>    5.6669    1.0000 </r>
       <r>    5.6669    1.0000 </r>
       <r>    5.7294    1.0000 </r>
       <r>    5.7718    1.0000 </r>
       <r>    5.8261    1.0000 </r>
       <r>    5.8261    1.0000 </r>
       <r>    6.2705    1.0000 </r>
       <r>    6.2705    1.0000 </r>
       <r>    7.1119    1.0000 </r>
       <r>    7.1119    1.0000 </r>
       <r>    7.1415    1.0000 </r>
       <r>    7.3116    1.0000 </r>
       <r>    7.3116    1.0000 </r>
       <r>    8.0113    1.0000 </r>
       <r>    8.0113    1.0000 </r>
       <r>    8.0767    1.0000 </r>
       <r>    8.0903    1.0000 </r>
       <r>    8.0903    1.0000 </r>
       <r>   10.3975   -0.3666 </r>
       <r>   11.1800    0.0000 </r>
       <r>   11.1800    0.0000 </r>
       <r>   11.2149    0.0000 </r>
       <r>   11.2905    0.0000 </r>
       <r>   11.2905    0.0000 </r>
       <r>   11.3241    0.0000 </r>
       <r>   11.5945    0.0000 </r>
       <r>   11.5945    0.0000 </r>
       <r>   13.0473    0.0000 </r>
       <r>   13.2589    0.0000 </r>
       <r>   13.3183    0.0000 </r>
       <r>   13.3183    0.0000 </r>
       <r>   13.8681    0.0000 </r>
       <r>   14.6821    0.0000 </r>
       <r>   14.7135    0.0000 </r>
       <r>   14.7135    0.0000 </r>
       <r>   15.1729    0.0000 </r>
       <r>   18.9367    0.0000 </r>
       <r>   19.2518    0.0000 </r>
       <r>   19.2518    0.0000 </r>
       <r>   19.4263    0.0000 </r>
       <r>   19.4263    0.0000 </r>
       <r>   19.4286    0.0000 </r>
       <r>   19.4286    0.0000 </r>
       <r>   19.5561    0.0000 </r>
       <r>   20.7928    0.0000 </r>
      </set>
      <set comment="kpoint 2">
       <r>  -61.6305    1.0000 </r>
       <r>  -61.6303    1.0000 </r>
       <r>  -61.6286    1.0000 </r>
       <r>  -61.6282    1.0000 </r>
       <r>  -61.5907    1.0000 </r>
       <r>  -61.5889    1.0000 </r>
       <r>  -61.5581    1.0000 </r>
       <r>  -61.5559    1.0000 </r>
       <r>  -61.4699    1.0000 </r>
       <r>  -61.4697    1.0000 </r>
       <r>  -61.4674    1.0000 </r>
       <r>  -61.4671    1.0000 </r>
       <r>  -53.9226    1.0000 </r>
       <r>  -53.9225    1.0000 </r>
       <r>  -53.8937    1.0000 </r>
       <r>  -35.0642    1.0000 </r>
       <r>  -35.0080    1.0000 </r>
       <r>  -35.0076    1.0000 </r>
       <r>  -12.6613    1.0000 </r>
       <r>  -12.6609    1.0000 </r>
       <r>  -12.6561    1.0000 </r>
       <r>  -12.6524    1.0000 </r>
       <r>  -12.6491    1.0000 </r>
       <r>  -12.6444    1.0000 </r>
       <r>  -12.6188    1.0000 </r>
       <r>  -12.6172    1.0000 </r>
       <r>  -12.6163    1.0000 </r>
       <r>  -12.6134    1.0000 </r>
       <r>   -1.7730    1.0000 </r>
       <r>    0.1235    1.0000 </r>
       <r>    2.4588    1.0000 </r>
       <r>    4.0144    1.0000 </r>
       <r>    4.0988    1.0000 </r>
       <r>    4.5309    1.0000 </r>
       <r>    4.5565    1.0000 </r>
       <r>    4.6874    1.0000 </r>
       <r>    4.9480    1.0000 </r>
       <r>    4.9734    1.0000 </r>
       <r>    5.0033    1.0000 </r>
       <r>    5.2954    1.0000 </r>
       <r>    5.3807    1.0000 </r>
       <r>    5.4799    1.0000 </r>
       <r>    5.5352    1.0000 </r>
       <r>    5.6286    1.0000 </r>
       <r>    5.6593    1.0000 </r>
       <r>    5.6886    1.0000 </r>
       <r>    5.7916    1.0000 </r>
       <r>    5.7947    1.0000 </r>
       <r>    5.8467    1.0000 </r>
       <r>    5.9678    1.0000 </r>
       <r>    6.1869    1.0000 </r>
       <r>    6.5642    1.0000 </r>
       <r>    6.8586    1.0000 </r>
       <r>    7.0065    1.0000 </r>
       <r>    7.2640    1.0000 </r>
       <r>    7.3032    1.0000 </r>
       <r>    7.8325    1.0000 </r>
       <r>    7.9336    1.0000 </r>
       <r>    7.9565    1.0000 </r>
       <r>    8.0443    1.0000 </r>
       <r>    8.0911    1.0000 </r>
       <r>    8.7610    0.8705 </r>
       <r>    9.4554    0.1597 </r>
       <r>    9.5470   -0.0117 </r>
       <r>   10.4444    0.0000 </r>
       <r>   10.4776    0.0000 </r>
       <r>   10.7871    0.0000 </r>
       <r>   12.1349    0.0000 </r>
       <r>   12.7908    0.0000 </r>
       <r>   13.0433    0.0000 </r>
       <r>   13.6993    0.0000 </r>
       <r>   13.7041    0.0000 </r>
       <r>   14.0136    0.0000 </r>
       <r>   14.6743    0.0000 </r>
       <r>   15.0311    0.0000 </r>
       <r>   15.1721    0.0000 </r>
       <r>   16.1305    0.0000 </r>
       <r>   16.4092    0.0000 </r>
       <r>   16.5512    0.0000 </r>
       <r>   16.8842    0.0000 </r>
       <r>   17.1715    0.0000 </r>
       <r>   17.3159    0.0000 </r>
       <r>   19.8891    0.0000 </r>
       <r>   20.5698    0.0000 </r>
       <r>   21.9851    0.0000 </r>
       <r>   22.0782    0.0000 </r>
       <r>   22.5897    0.0000 </r>
       <r>   22.7073    0.0000 </r>
      </set>
      <set comment="kpoint 3">
       <r>  -61.6306    1.0000 </r>
       <r>  -61.6302    1.0000 </r>
       <r>  -61.6291    1.0000 </r>
       <r>  -61.6283    1.0000 </r>
       <r>  -61.5904    1.0000 </r>
       <r>  -61.5894    1.0000 </r>
       <r>  -61.5576    1.0000 </r>
       <r>  -61.5566    1.0000 </r>
       <r>  -61.4701    1.0000 </r>
       <r>  -61.4695    1.0000 </r>
       <r>  -61.4680    1.0000 </r>
       <r>  -61.4671    1.0000 </r>
       <r>  -53.9229    1.0000 </r>
       <r>  -53.9226    1.0000 </r>
       <r>  -53.8938    1.0000 </r>
       <r>  -35.0640    1.0000 </r>
       <r>  -35.0088    1.0000 </r>
       <r>  -35.0078    1.0000 </r>
       <r>  -12.6617    1.0000 </r>
       <r>  -12.6605    1.0000 </r>
       <r>  -12.6519    1.0000 </r>
       <r>  -12.6502    1.0000 </r>
       <r>  -12.6458    1.0000 </r>
       <r>  -12.6422    1.0000 </r>
       <r>  -12.6205    1.0000 </r>
       <r>  -12.6196    1.0000 </r>
       <r>  -12.6119    1.0000 </r>
       <r>  -12.6106    1.0000 </r>
       <r>   -0.6034    1.0000 </r>
       <r>    0.4079    1.0000 </r>
       <r>    2.7987    1.0000 </r>
       <r>    3.1275    1.0000 </r>
       <r>    3.5488    1.0000 </r>
       <r>    4.3910    1.0000 </r>
       <r>    4.7780    1.0000 </r>
       <r>    4.7900    1.0000 </r>
       <r>    4.9085    1.0000 </r>
       <r>    5.0431    1.0000 </r>
       <r>    5.1226    1.0000 </r>
       <r>    5.2452    1.0000 </r>
       <r>    5.2746    1.0000 </r>
       <r>    5.4708    1.0000 </r>
       <r>    5.5231    1.0000 </r>
       <r>    5.5273    1.0000 </r>
       <r>    5.6263    1.0000 </r>
       <r>    5.6360    1.0000 </r>
       <r>    5.6760    1.0000 </r>
       <r>    5.7165    1.0000 </r>
       <r>    5.7578    1.0000 </r>
       <r>    5.8383    1.0000 </r>
       <r>    5.9290    1.0000 </r>
       <r>    6.0339    1.0000 </r>
       <r>    6.6320    1.0000 </r>
       <r>    6.8778    1.0000 </r>
       <r>    7.1761    1.0000 </r>
       <r>    7.1863    1.0000 </r>
       <r>    7.5972    1.0000 </r>
       <r>    7.7206    1.0000 </r>
       <r>    7.9520    1.0000 </r>
       <r>    8.0241    1.0000 </r>
       <r>    8.1136    1.0000 </r>
       <r>    8.3254    1.0000 </r>
       <r>    8.4383    1.0126 </r>
       <r>    8.7331    0.9457 </r>
       <r>    9.0911    0.3648 </r>
       <r>    9.2777   -0.0127 </r>
       <r>   10.6247    0.0000 </r>
       <r>   11.0368    0.0000 </r>
       <r>   13.1552    0.0000 </r>
       <r>   14.0916    0.0000 </r>
       <r>   14.4892    0.0000 </r>
       <r>   14.6279    0.0000 </r>
       <r>   15.1707    0.0000 </r>
       <r>   15.3679    0.0000 </r>
       <r>   15.7143    0.0000 </r>
       <r>   16.5011    0.0000 </r>
       <r>   16.9440    0.0000 </r>
       <r>   17.3219    0.0000 </r>
       <r>   18.3397    0.0000 </r>
       <r>   18.8249    0.0000 </r>
       <r>   18.9512    0.0000 </r>
       <r>   20.7376    0.0000 </r>
       <r>   21.1239    0.0000 </r>
       <r>   21.5117    0.0000 </r>
       <r>   21.6643    0.0000 </r>
       <r>   21.8043    0.0000 </r>
       <r>   22.2830    0.0000 </r>
       <r>   22.3646    0.0000 </r>
      </set>
      <set comment="kpoint 4">
       <r>  -61.6305    1.0000 </r>
       <r>  -61.6303    1.0000 </r>
       <r>  -61.6286    1.0000 </r>
       <r>  -61.6283    1.0000 </r>
       <r>  -61.5908    1.0000 </r>
       <r>  -61.5890    1.0000 </r>
       <r>  -61.5581    1.0000 </r>
       <r>  -61.5560    1.0000 </r>
       <r>  -61.4700    1.0000 </r>
       <r>  -61.4697    1.0000 </r>
       <r>  -61.4675    1.0000 </r>
       <r>  -61.4671    1.0000 </r>
       <r>  -53.9227    1.0000 </r>
       <r>  -53.9226    1.0000 </r>
       <r>  -53.8938    1.0000 </r>
       <r>  -35.0642    1.0000 </r>
       <r>  -35.0080    1.0000 </r>
       <r>  -35.0076    1.0000 </r>
       <r>  -12.6626    1.0000 </r>
       <r>  -12.6608    1.0000 </r>
       <r>  -12.6553    1.0000 </r>
       <r>  -12.6535    1.0000 </r>
       <r>  -12.6486    1.0000 </r>
       <r>  -12.6436    1.0000 </r>
       <r>  -12.6189    1.0000 </r>
       <r>  -12.6174    1.0000 </r>
       <r>  -12.6171    1.0000 </r>
       <r>  -12.6123    1.0000 </r>
       <r>   -1.7346    1.0000 </r>
       <r>    0.0017    1.0000 </r>
       <r>    2.5615    1.0000 </r>
       <r>    4.0726    1.0000 </r>
       <r>    4.1297    1.0000 </r>
       <r>    4.4765    1.0000 </r>
       <r>    4.4972    1.0000 </r>
       <r>    4.7766    1.0000 </r>
       <r>    4.9739    1.0000 </r>
       <r>    5.0062    1.0000 </r>
       <r>    5.0223    1.0000 </r>
       <r>    5.2169    1.0000 </r>
       <r>    5.3629    1.0000 </r>
       <r>    5.5207    1.0000 </r>
       <r>    5.5653    1.0000 </r>
       <r>    5.6506    1.0000 </r>
       <r>    5.6513    1.0000 </r>
       <r>    5.7041    1.0000 </r>
       <r>    5.7749    1.0000 </r>
       <r>    5.8161    1.0000 </r>
       <r>    5.8724    1.0000 </r>
       <r>    6.0459    1.0000 </r>
       <r>    6.0531    1.0000 </r>
       <r>    6.2283    1.0000 </r>
       <r>    7.0176    1.0000 </r>
       <r>    7.1030    1.0000 </r>
       <r>    7.2706    1.0000 </r>
       <r>    7.2777    1.0000 </r>
       <r>    7.7875    1.0000 </r>
       <r>    7.9261    1.0000 </r>
       <r>    7.9601    1.0000 </r>
       <r>    8.0472    1.0000 </r>
       <r>    8.1098    1.0000 </r>
       <r>    8.8526    0.8481 </r>
       <r>    9.2321    0.3077 </r>
       <r>    9.2420    0.2147 </r>
       <r>   10.7581    0.0000 </r>
       <r>   11.1190    0.0000 </r>
       <r>   11.1485    0.0000 </r>
       <r>   11.2531    0.0000 </r>
       <r>   13.0246    0.0000 </r>
       <r>   13.0319    0.0000 </r>
       <r>   13.7190    0.0000 </r>
       <r>   13.9634    0.0000 </r>
       <r>   14.0382    0.0000 </r>
       <r>   14.2751    0.0000 </r>
       <r>   14.7192    0.0000 </r>
       <r>   15.1729    0.0000 </r>
       <r>   15.2009    0.0000 </r>
       <r>   15.2485    0.0000 </r>
       <r>   16.3955    0.0000 </r>
       <r>   17.4897    0.0000 </r>
       <r>   19.0238    0.0000 </r>
       <r>   19.1798    0.0000 </r>
       <r>   20.2503    0.0000 </r>
       <r>   20.3385    0.0000 </r>
       <r>   20.9130    0.0000 </r>
       <r>   20.9442    0.0000 </r>
       <r>   22.6270    0.0000 </r>
       <r>   23.1307    0.0000 </r>
      </set>
      <set comment="kpoint 5">
       <r>  -61.6307    1.0000 </r>
       <r>  -61.6302    1.0000 </r>
       <r>  -61.6291    1.0000 </r>
       <r>  -61.6283    1.0000 </r>
       <r>  -61.5905    1.0000 </r>
       <r>  -61.5893    1.0000 </r>
       <r>  -61.5578    1.0000 </r>
       <r>  -61.5565    1.0000 </r>
       <r>  -61.4703    1.0000 </r>
       <r>  -61.4695    1.0000 </r>
       <r>  -61.4680    1.0000 </r>
       <r>  -61.4670    1.0000 </r>
       <r>  -53.9229    1.0000 </r>
       <r>  -53.9227    1.0000 </r>
       <r>  -53.8938    1.0000 </r>
       <r>  -35.0641    1.0000 </r>
       <r>  -35.0085    1.0000 </r>
       <r>  -35.0079    1.0000 </r>
       <r>  -12.6612    1.0000 </r>
       <r>  -12.6605    1.0000 </r>
       <r>  -12.6522    1.0000 </r>
       <r>  -12.6502    1.0000 </r>
       <r>  -12.6491    1.0000 </r>
       <r>  -12.6411    1.0000 </r>
       <r>  -12.6211    1.0000 </r>
       <r>  -12.6178    1.0000 </r>
       <r>  -12.6134    1.0000 </r>
       <r>  -12.6111    1.0000 </r>
       <r>   -0.8996    1.0000 </r>
       <r>    0.3091    1.0000 </r>
       <r>    2.9566    1.0000 </r>
       <r>    3.3770    1.0000 </r>
       <r>    3.7455    1.0000 </r>
       <r>    4.4556    1.0000 </r>
       <r>    4.5833    1.0000 </r>
       <r>    4.6373    1.0000 </r>
       <r>    4.9567    1.0000 </r>
       <r>    5.0440    1.0000 </r>
       <r>    5.1876    1.0000 </r>
       <r>    5.2370    1.0000 </r>
       <r>    5.3507    1.0000 </r>
       <r>    5.4032    1.0000 </r>
       <r>    5.4811    1.0000 </r>
       <r>    5.5438    1.0000 </r>
       <r>    5.5911    1.0000 </r>
       <r>    5.6158    1.0000 </r>
       <r>    5.6976    1.0000 </r>
       <r>    5.7192    1.0000 </r>
       <r>    5.8352    1.0000 </r>
       <r>    5.8764    1.0000 </r>
       <r>    5.9545    1.0000 </r>
       <r>    6.1555    1.0000 </r>
       <r>    6.5594    1.0000 </r>
       <r>    6.7462    1.0000 </r>
       <r>    6.8481    1.0000 </r>
       <r>    7.4722    1.0000 </r>
       <r>    7.7361    1.0000 </r>
       <r>    7.8207    1.0000 </r>
       <r>    7.9646    1.0000 </r>
       <r>    7.9877    1.0000 </r>
       <r>    8.0843    1.0000 </r>
       <r>    8.2390    1.0000 </r>
       <r>    8.4736    1.0195 </r>
       <r>    8.6337    0.9373 </r>
       <r>    9.2403    0.1100 </r>
       <r>    9.8079   -0.0217 </r>
       <r>   11.8990    0.0000 </r>
       <r>   12.4386    0.0000 </r>
       <r>   12.7362    0.0000 </r>
       <r>   13.1768    0.0000 </r>
       <r>   13.2525    0.0000 </r>
       <r>   13.5589    0.0000 </r>
       <r>   14.4978    0.0000 </r>
       <r>   15.1722    0.0000 </r>
       <r>   15.7988    0.0000 </r>
       <r>   16.4626    0.0000 </r>
       <r>   16.6932    0.0000 </r>
       <r>   17.7091    0.0000 </r>
       <r>   18.3474    0.0000 </r>
       <r>   19.0062    0.0000 </r>
       <r>   19.3629    0.0000 </r>
       <r>   20.0795    0.0000 </r>
       <r>   20.8257    0.0000 </r>
       <r>   21.0201    0.0000 </r>
       <r>   21.0538    0.0000 </r>
       <r>   21.7769    0.0000 </r>
       <r>   22.4461    0.0000 </r>
       <r>   23.1958    0.0000 </r>
      </set>
      <set comment="kpoint 6">
       <r>  -61.6308    1.0000 </r>
       <r>  -61.6298    1.0000 </r>
       <r>  -61.6293    1.0000 </r>
       <r>  -61.6282    1.0000 </r>
       <r>  -61.5901    1.0000 </r>
       <r>  -61.5897    1.0000 </r>
       <r>  -61.5573    1.0000 </r>
       <r>  -61.5569    1.0000 </r>
       <r>  -61.4703    1.0000 </r>
       <r>  -61.4690    1.0000 </r>
       <r>  -61.4683    1.0000 </r>
       <r>  -61.4670    1.0000 </r>
       <r>  -53.9228    1.0000 </r>
       <r>  -53.9227    1.0000 </r>
       <r>  -53.8938    1.0000 </r>
       <r>  -35.0640    1.0000 </r>
       <r>  -35.0088    1.0000 </r>
       <r>  -35.0081    1.0000 </r>
       <r>  -12.6601    1.0000 </r>
       <r>  -12.6571    1.0000 </r>
       <r>  -12.6530    1.0000 </r>
       <r>  -12.6514    1.0000 </r>
       <r>  -12.6449    1.0000 </r>
       <r>  -12.6418    1.0000 </r>
       <r>  -12.6207    1.0000 </r>
       <r>  -12.6182    1.0000 </r>
       <r>  -12.6121    1.0000 </r>
       <r>  -12.6108    1.0000 </r>
       <r>    0.1641    1.0000 </r>
       <r>    0.3009    1.0000 </r>
       <r>    2.8185    1.0000 </r>
       <r>    2.9586    1.0000 </r>
       <r>    3.7026    1.0000 </r>
       <r>    3.7878    1.0000 </r>
       <r>    4.6140    1.0000 </r>
       <r>    4.7150    1.0000 </r>
       <r>    4.9017    1.0000 </r>
       <r>    4.9753    1.0000 </r>
       <r>    5.2524    1.0000 </r>
       <r>    5.3188    1.0000 </r>
       <r>    5.3473    1.0000 </r>
       <r>    5.4000    1.0000 </r>
       <r>    5.4996    1.0000 </r>
       <r>    5.5085    1.0000 </r>
       <r>    5.5258    1.0000 </r>
       <r>    5.5800    1.0000 </r>
       <r>    5.6223    1.0000 </r>
       <r>    5.6685    1.0000 </r>
       <r>    5.7409    1.0000 </r>
       <r>    5.8634    1.0000 </r>
       <r>    5.9132    1.0000 </r>
       <r>    5.9788    1.0000 </r>
       <r>    6.5496    1.0000 </r>
       <r>    6.6447    1.0000 </r>
       <r>    6.8496    1.0000 </r>
       <r>    7.1674    1.0000 </r>
       <r>    7.7938    1.0000 </r>
       <r>    7.9088    1.0000 </r>
       <r>    7.9204    1.0000 </r>
       <r>    7.9695    1.0000 </r>
       <r>    8.0801    1.0000 </r>
       <r>    8.1456    1.0000 </r>
       <r>    8.2589    1.0000 </r>
       <r>    8.4468    1.0000 </r>
       <r>    8.4880    1.1574 </r>
       <r>    8.9425    0.1122 </r>
       <r>   11.6793    0.0000 </r>
       <r>   12.4651    0.0000 </r>
       <r>   13.1382    0.0000 </r>
       <r>   13.3739    0.0000 </r>
       <r>   13.5646    0.0000 </r>
       <r>   14.9060    0.0000 </r>
       <r>   15.1724    0.0000 </r>
       <r>   15.9797    0.0000 </r>
       <r>   16.4550    0.0000 </r>
       <r>   16.5590    0.0000 </r>
       <r>   17.4340    0.0000 </r>
       <r>   17.7169    0.0000 </r>
       <r>   18.0662    0.0000 </r>
       <r>   18.4203    0.0000 </r>
       <r>   19.3678    0.0000 </r>
       <r>   20.9092    0.0000 </r>
       <r>   21.2837    0.0000 </r>
       <r>   21.7325    0.0000 </r>
       <r>   21.9857    0.0000 </r>
       <r>   22.4396    0.0000 </r>
       <r>   22.9917    0.0000 </r>
       <r>   23.2321    0.0000 </r>
      </set>
      <set comment="kpoint 7">
       <r>  -61.6307    1.0000 </r>
       <r>  -61.6301    1.0000 </r>
       <r>  -61.6291    1.0000 </r>
       <r>  -61.6282    1.0000 </r>
       <r>  -61.5904    1.0000 </r>
       <r>  -61.5894    1.0000 </r>
       <r>  -61.5578    1.0000 </r>
       <r>  -61.5564    1.0000 </r>
       <r>  -61.4702    1.0000 </r>
       <r>  -61.4694    1.0000 </r>
       <r>  -61.4680    1.0000 </r>
       <r>  -61.4670    1.0000 </r>
       <r>  -53.9228    1.0000 </r>
       <r>  -53.9226    1.0000 </r>
       <r>  -53.8938    1.0000 </r>
       <r>  -35.0641    1.0000 </r>
       <r>  -35.0085    1.0000 </r>
       <r>  -35.0079    1.0000 </r>
       <r>  -12.6592    1.0000 </r>
       <r>  -12.6571    1.0000 </r>
       <r>  -12.6551    1.0000 </r>
       <r>  -12.6521    1.0000 </r>
       <r>  -12.6506    1.0000 </r>
       <r>  -12.6400    1.0000 </r>
       <r>  -12.6213    1.0000 </r>
       <r>  -12.6165    1.0000 </r>
       <r>  -12.6148    1.0000 </r>
       <r>  -12.6112    1.0000 </r>
       <r>   -1.0041    1.0000 </r>
       <r>    0.5283    1.0000 </r>
       <r>    3.0563    1.0000 </r>
       <r>    3.4300    1.0000 </r>
       <r>    3.5365    1.0000 </r>
       <r>    4.4599    1.0000 </r>
       <r>    4.4968    1.0000 </r>
       <r>    4.5171    1.0000 </r>
       <r>    4.9546    1.0000 </r>
       <r>    5.0487    1.0000 </r>
       <r>    5.2118    1.0000 </r>
       <r>    5.2890    1.0000 </r>
       <r>    5.3181    1.0000 </r>
       <r>    5.4527    1.0000 </r>
       <r>    5.5081    1.0000 </r>
       <r>    5.5306    1.0000 </r>
       <r>    5.5609    1.0000 </r>
       <r>    5.6064    1.0000 </r>
       <r>    5.6678    1.0000 </r>
       <r>    5.7117    1.0000 </r>
       <r>    5.8260    1.0000 </r>
       <r>    5.8435    1.0000 </r>
       <r>    5.8715    1.0000 </r>
       <r>    6.2987    1.0000 </r>
       <r>    6.5488    1.0000 </r>
       <r>    6.6314    1.0000 </r>
       <r>    6.6766    1.0000 </r>
       <r>    7.6402    1.0000 </r>
       <r>    7.7133    1.0000 </r>
       <r>    7.8647    1.0000 </r>
       <r>    7.9494    1.0000 </r>
       <r>    7.9750    1.0000 </r>
       <r>    8.0996    1.0000 </r>
       <r>    8.1935    1.0000 </r>
       <r>    8.3252    1.0333 </r>
       <r>    8.7847    0.8884 </r>
       <r>    9.0808    0.2317 </r>
       <r>   10.7780   -0.0177 </r>
       <r>   11.2084    0.0000 </r>
       <r>   12.6474    0.0000 </r>
       <r>   13.2618    0.0000 </r>
       <r>   13.4947    0.0000 </r>
       <r>   13.8062    0.0000 </r>
       <r>   14.0403    0.0000 </r>
       <r>   14.4371    0.0000 </r>
       <r>   14.6540    0.0000 </r>
       <r>   14.7900    0.0000 </r>
       <r>   15.1739    0.0000 </r>
       <r>   16.1911    0.0000 </r>
       <r>   17.9811    0.0000 </r>
       <r>   19.0697    0.0000 </r>
       <r>   19.2454    0.0000 </r>
       <r>   20.0054    0.0000 </r>
       <r>   20.0326    0.0000 </r>
       <r>   20.3358    0.0000 </r>
       <r>   20.4017    0.0000 </r>
       <r>   20.8658    0.0000 </r>
       <r>   22.1565    0.0000 </r>
       <r>   22.3829    0.0000 </r>
       <r>   22.5643    0.0000 </r>
      </set>
      <set comment="kpoint 8">
       <r>  -61.6306    1.0000 </r>
       <r>  -61.6303    1.0000 </r>
       <r>  -61.6292    1.0000 </r>
       <r>  -61.6284    1.0000 </r>
       <r>  -61.5904    1.0000 </r>
       <r>  -61.5895    1.0000 </r>
       <r>  -61.5576    1.0000 </r>
       <r>  -61.5567    1.0000 </r>
       <r>  -61.4701    1.0000 </r>
       <r>  -61.4695    1.0000 </r>
       <r>  -61.4681    1.0000 </r>
       <r>  -61.4672    1.0000 </r>
       <r>  -53.9229    1.0000 </r>
       <r>  -53.9227    1.0000 </r>
       <r>  -53.8939    1.0000 </r>
       <r>  -35.0640    1.0000 </r>
       <r>  -35.0088    1.0000 </r>
       <r>  -35.0078    1.0000 </r>
       <r>  -12.6694    1.0000 </r>
       <r>  -12.6588    1.0000 </r>
       <r>  -12.6529    1.0000 </r>
       <r>  -12.6501    1.0000 </r>
       <r>  -12.6436    1.0000 </r>
       <r>  -12.6386    1.0000 </r>
       <r>  -12.6254    1.0000 </r>
       <r>  -12.6143    1.0000 </r>
       <r>  -12.6133    1.0000 </r>
       <r>  -12.6085    1.0000 </r>
       <r>   -0.5115    1.0000 </r>
       <r>    0.3869    1.0000 </r>
       <r>    2.4808    1.0000 </r>
       <r>    2.5668    1.0000 </r>
       <r>    4.4297    1.0000 </r>
       <r>    4.5700    1.0000 </r>
       <r>    4.5743    1.0000 </r>
       <r>    4.6480    1.0000 </r>
       <r>    5.1740    1.0000 </r>
       <r>    5.1856    1.0000 </r>
       <r>    5.2377    1.0000 </r>
       <r>    5.2597    1.0000 </r>
       <r>    5.2923    1.0000 </r>
       <r>    5.3689    1.0000 </r>
       <r>    5.4697    1.0000 </r>
       <r>    5.4988    1.0000 </r>
       <r>    5.5434    1.0000 </r>
       <r>    5.5903    1.0000 </r>
       <r>    5.7096    1.0000 </r>
       <r>    5.7276    1.0000 </r>
       <r>    5.7426    1.0000 </r>
       <r>    5.9458    1.0000 </r>
       <r>    5.9896    1.0000 </r>
       <r>    6.0818    1.0000 </r>
       <r>    6.6026    1.0000 </r>
       <r>    6.6091    1.0000 </r>
       <r>    7.2128    1.0000 </r>
       <r>    7.2742    1.0000 </r>
       <r>    7.3183    1.0000 </r>
       <r>    7.8640    1.0000 </r>
       <r>    7.9985    1.0000 </r>
       <r>    8.0123    1.0000 </r>
       <r>    8.1223    1.0000 </r>
       <r>    8.1756    1.0000 </r>
       <r>    8.2444    1.0218 </r>
       <r>    8.3579    1.0351 </r>
       <r>   10.3613   -0.0320 </r>
       <r>   10.5396    0.0000 </r>
       <r>   11.1044    0.0000 </r>
       <r>   11.1253    0.0000 </r>
       <r>   11.7212    0.0000 </r>
       <r>   11.8936    0.0000 </r>
       <r>   11.9072    0.0000 </r>
       <r>   13.8578    0.0000 </r>
       <r>   15.1725    0.0000 </r>
       <r>   17.1330    0.0000 </r>
       <r>   17.4817    0.0000 </r>
       <r>   17.5764    0.0000 </r>
       <r>   17.7743    0.0000 </r>
       <r>   17.7976    0.0000 </r>
       <r>   19.2552    0.0000 </r>
       <r>   19.5977    0.0000 </r>
       <r>   20.5437    0.0000 </r>
       <r>   20.9979    0.0000 </r>
       <r>   21.1424    0.0000 </r>
       <r>   21.2709    0.0000 </r>
       <r>   21.4131    0.0000 </r>
       <r>   21.5232    0.0000 </r>
       <r>   22.0914    0.0000 </r>
       <r>   22.0957    0.0000 </r>
      </set>
      <set comment="kpoint 9">
       <r>  -61.6308    1.0000 </r>
       <r>  -61.6299    1.0000 </r>
       <r>  -61.6293    1.0000 </r>
       <r>  -61.6283    1.0000 </r>
       <r>  -61.5901    1.0000 </r>
       <r>  -61.5898    1.0000 </r>
       <r>  -61.5574    1.0000 </r>
       <r>  -61.5569    1.0000 </r>
       <r>  -61.4704    1.0000 </r>
       <r>  -61.4691    1.0000 </r>
       <r>  -61.4683    1.0000 </r>
       <r>  -61.4671    1.0000 </r>
       <r>  -53.9228    1.0000 </r>
       <r>  -53.9228    1.0000 </r>
       <r>  -53.8939    1.0000 </r>
       <r>  -35.0640    1.0000 </r>
       <r>  -35.0088    1.0000 </r>
       <r>  -35.0081    1.0000 </r>
       <r>  -12.6661    1.0000 </r>
       <r>  -12.6584    1.0000 </r>
       <r>  -12.6509    1.0000 </r>
       <r>  -12.6480    1.0000 </r>
       <r>  -12.6439    1.0000 </r>
       <r>  -12.6416    1.0000 </r>
       <r>  -12.6234    1.0000 </r>
       <r>  -12.6156    1.0000 </r>
       <r>  -12.6128    1.0000 </r>
       <r>  -12.6093    1.0000 </r>
       <r>    0.0934    1.0000 </r>
       <r>    0.5445    1.0000 </r>
       <r>    2.2701    1.0000 </r>
       <r>    2.6926    1.0000 </r>
       <r>    3.8094    1.0000 </r>
       <r>    4.2060    1.0000 </r>
       <r>    4.6577    1.0000 </r>
       <r>    4.7041    1.0000 </r>
       <r>    5.0088    1.0000 </r>
       <r>    5.1042    1.0000 </r>
       <r>    5.2175    1.0000 </r>
       <r>    5.2994    1.0000 </r>
       <r>    5.3563    1.0000 </r>
       <r>    5.4531    1.0000 </r>
       <r>    5.4590    1.0000 </r>
       <r>    5.5152    1.0000 </r>
       <r>    5.5312    1.0000 </r>
       <r>    5.5667    1.0000 </r>
       <r>    5.6955    1.0000 </r>
       <r>    5.7072    1.0000 </r>
       <r>    5.7595    1.0000 </r>
       <r>    5.8051    1.0000 </r>
       <r>    5.8067    1.0000 </r>
       <r>    5.9096    1.0000 </r>
       <r>    6.5667    1.0000 </r>
       <r>    6.9077    1.0000 </r>
       <r>    6.9975    1.0000 </r>
       <r>    7.1783    1.0000 </r>
       <r>    7.4241    1.0000 </r>
       <r>    7.9387    1.0000 </r>
       <r>    7.9823    1.0000 </r>
       <r>    8.0544    1.0000 </r>
       <r>    8.0876    1.0000 </r>
       <r>    8.1305    1.0000 </r>
       <r>    8.1673    1.0000 </r>
       <r>    8.2838    1.0000 </r>
       <r>    9.1758    0.2548 </r>
       <r>    9.2755   -0.0025 </r>
       <r>   10.6890    0.0000 </r>
       <r>   11.4925    0.0000 </r>
       <r>   12.5616    0.0000 </r>
       <r>   12.6790    0.0000 </r>
       <r>   14.2521    0.0000 </r>
       <r>   15.1711    0.0000 </r>
       <r>   15.8824    0.0000 </r>
       <r>   16.5716    0.0000 </r>
       <r>   16.7434    0.0000 </r>
       <r>   17.1809    0.0000 </r>
       <r>   17.3321    0.0000 </r>
       <r>   17.3333    0.0000 </r>
       <r>   17.8059    0.0000 </r>
       <r>   19.5184    0.0000 </r>
       <r>   19.8375    0.0000 </r>
       <r>   20.4972    0.0000 </r>
       <r>   21.5321    0.0000 </r>
       <r>   21.9106    0.0000 </r>
       <r>   22.2341    0.0000 </r>
       <r>   22.2488    0.0000 </r>
       <r>   22.3793    0.0000 </r>
       <r>   23.3574    0.0000 </r>
      </set>
      <set comment="kpoint 10">
       <r>  -61.6306    1.0000 </r>
       <r>  -61.6306    1.0000 </r>
       <r>  -61.6282    1.0000 </r>
       <r>  -61.6282    1.0000 </r>
       <r>  -61.5911    1.0000 </r>
       <r>  -61.5889    1.0000 </r>
       <r>  -61.5584    1.0000 </r>
       <r>  -61.5558    1.0000 </r>
       <r>  -61.4700    1.0000 </r>
       <r>  -61.4700    1.0000 </r>
       <r>  -61.4671    1.0000 </r>
       <r>  -61.4671    1.0000 </r>
       <r>  -53.9226    1.0000 </r>
       <r>  -53.9225    1.0000 </r>
       <r>  -53.8938    1.0000 </r>
       <r>  -35.0642    1.0000 </r>
       <r>  -35.0075    1.0000 </r>
       <r>  -35.0075    1.0000 </r>
       <r>  -12.6635    1.0000 </r>
       <r>  -12.6630    1.0000 </r>
       <r>  -12.6551    1.0000 </r>
       <r>  -12.6551    1.0000 </r>
       <r>  -12.6479    1.0000 </r>
       <r>  -12.6479    1.0000 </r>
       <r>  -12.6186    1.0000 </r>
       <r>  -12.6186    1.0000 </r>
       <r>  -12.6148    1.0000 </r>
       <r>  -12.6148    1.0000 </r>
       <r>   -2.0830    1.0000 </r>
       <r>   -0.4944    1.0000 </r>
       <r>    2.5111    1.0000 </r>
       <r>    4.3866    1.0000 </r>
       <r>    4.4568    1.0000 </r>
       <r>    4.4568    1.0000 </r>
       <r>    4.5652    1.0000 </r>
       <r>    4.5652    1.0000 </r>
       <r>    4.9239    1.0000 </r>
       <r>    4.9239    1.0000 </r>
       <r>    5.2494    1.0000 </r>
       <r>    5.2494    1.0000 </r>
       <r>    5.2799    1.0000 </r>
       <r>    5.4856    1.0000 </r>
       <r>    5.4856    1.0000 </r>
       <r>    5.7209    1.0000 </r>
       <r>    5.7209    1.0000 </r>
       <r>    5.7392    1.0000 </r>
       <r>    5.7875    1.0000 </r>
       <r>    5.8141    1.0000 </r>
       <r>    5.8141    1.0000 </r>
       <r>    6.2019    1.0000 </r>
       <r>    6.2019    1.0000 </r>
       <r>    6.8926    1.0000 </r>
       <r>    7.1504    1.0000 </r>
       <r>    7.1504    1.0000 </r>
       <r>    7.3376    1.0000 </r>
       <r>    7.3376    1.0000 </r>
       <r>    7.9708    1.0000 </r>
       <r>    7.9708    1.0000 </r>
       <r>    8.0574    1.0000 </r>
       <r>    8.0574    1.0000 </r>
       <r>    8.2172    1.0000 </r>
       <r>   10.1222   -0.4143 </r>
       <r>   10.4697    0.0000 </r>
       <r>   11.0174    0.0000 </r>
       <r>   11.0174    0.0000 </r>
       <r>   11.2869    0.0000 </r>
       <r>   11.2869    0.0000 </r>
       <r>   11.7557    0.0000 </r>
       <r>   11.8761    0.0000 </r>
       <r>   11.8761    0.0000 </r>
       <r>   12.8405    0.0000 </r>
       <r>   13.3416    0.0000 </r>
       <r>   13.3416    0.0000 </r>
       <r>   13.7639    0.0000 </r>
       <r>   13.9695    0.0000 </r>
       <r>   14.7089    0.0000 </r>
       <r>   14.7089    0.0000 </r>
       <r>   15.1723    0.0000 </r>
       <r>   15.4829    0.0000 </r>
       <r>   17.1923    0.0000 </r>
       <r>   17.7523    0.0000 </r>
       <r>   17.7523    0.0000 </r>
       <r>   19.7296    0.0000 </r>
       <r>   19.7296    0.0000 </r>
       <r>   21.0668    0.0000 </r>
       <r>   21.3062    0.0000 </r>
       <r>   21.3062    0.0000 </r>
       <r>   21.7582    0.0000 </r>
      </set>
      <set comment="kpoint 11">
       <r>  -61.6304    1.0000 </r>
       <r>  -61.6303    1.0000 </r>
       <r>  -61.6286    1.0000 </r>
       <r>  -61.6282    1.0000 </r>
       <r>  -61.5909    1.0000 </r>
       <r>  -61.5890    1.0000 </r>
       <r>  -61.5581    1.0000 </r>
       <r>  -61.5561    1.0000 </r>
       <r>  -61.4699    1.0000 </r>
       <r>  -61.4697    1.0000 </r>
       <r>  -61.4674    1.0000 </r>
       <r>  -61.4671    1.0000 </r>
       <r>  -53.9226    1.0000 </r>
       <r>  -53.9225    1.0000 </r>
       <r>  -53.8938    1.0000 </r>
       <r>  -35.0642    1.0000 </r>
       <r>  -35.0080    1.0000 </r>
       <r>  -35.0076    1.0000 </r>
       <r>  -12.6639    1.0000 </r>
       <r>  -12.6607    1.0000 </r>
       <r>  -12.6533    1.0000 </r>
       <r>  -12.6497    1.0000 </r>
       <r>  -12.6496    1.0000 </r>
       <r>  -12.6466    1.0000 </r>
       <r>  -12.6200    1.0000 </r>
       <r>  -12.6160    1.0000 </r>
       <r>  -12.6151    1.0000 </r>
       <r>  -12.6150    1.0000 </r>
       <r>   -1.5802    1.0000 </r>
       <r>   -0.3861    1.0000 </r>
       <r>    3.0283    1.0000 </r>
       <r>    3.8496    1.0000 </r>
       <r>    4.1459    1.0000 </r>
       <r>    4.5651    1.0000 </r>
       <r>    4.6610    1.0000 </r>
       <r>    4.6636    1.0000 </r>
       <r>    4.9592    1.0000 </r>
       <r>    4.9770    1.0000 </r>
       <r>    5.0263    1.0000 </r>
       <r>    5.3423    1.0000 </r>
       <r>    5.3690    1.0000 </r>
       <r>    5.3998    1.0000 </r>
       <r>    5.5058    1.0000 </r>
       <r>    5.5530    1.0000 </r>
       <r>    5.6814    1.0000 </r>
       <r>    5.6875    1.0000 </r>
       <r>    5.7556    1.0000 </r>
       <r>    5.8057    1.0000 </r>
[...]
        <r>  0.0087  0.0056  0.0017  0.0006  0.0000  0.0191  0.0144  0.0045  0.0043 </r>
        <r>  0.0115  0.0013  0.0009  0.0042  0.0098  0.0018  0.0027  0.0021  0.0014 </r>
        <r>  0.0087  0.0056  0.0017  0.0006  0.0000  0.0191  0.0144  0.0045  0.0043 </r>
        <r>  0.0539  0.0079  0.0039  0.0035  0.0056  0.0028  0.0060  0.0000  0.0026 </r>
        <r>  0.0536  0.0004  0.0002  0.0050  0.0033  0.0069  0.0050  0.0003  0.0004 </r>
        <r>  0.0536  0.0004  0.0002  0.0050  0.0033  0.0069  0.0050  0.0003  0.0004 </r>
       </set>
       <set comment="band 65">
        <r>  0.0224  0.0004  0.0004  0.0018  0.0895  0.0272  0.0625  0.0006  0.2730 </r>
        <r>  0.0101  0.0024  0.0003  0.0094  0.0011  0.0066  0.0040  0.0017  0.0037 </r>
        <r>  0.0012  0.0001  0.0000  0.0046  0.0028  0.0068  0.0088  0.0048  0.0117 </r>
        <r>  0.0101  0.0024  0.0003  0.0094  0.0011  0.0066  0.0040  0.0017  0.0037 </r>
        <r>  0.0012  0.0001  0.0000  0.0046  0.0028  0.0068  0.0088  0.0048  0.0117 </r>
        <r>  0.0045  0.0006  0.0002  0.0237  0.0027  0.0006  0.0001  0.0010  0.0009 </r>
        <r>  0.0098  0.0091  0.0023  0.0075  0.0011  0.0044  0.0030  0.0004  0.0005 </r>
        <r>  0.0098  0.0091  0.0023  0.0075  0.0011  0.0044  0.0030  0.0004  0.0005 </r>
       </set>
       <set comment="band 66">
        <r>  0.0000  0.0031  0.0031  0.0165  0.2056  0.0478  0.0763  0.0226  0.0048 </r>
        <r>  0.0138  0.0040  0.0012  0.0017  0.0002  0.0013  0.0008  0.0005  0.0012 </r>
        <r>  0.0271  0.0047  0.0012  0.0070  0.0001  0.0013  0.0015  0.0003  0.0027 </r>
        <r>  0.0138  0.0040  0.0012  0.0017  0.0002  0.0013  0.0008  0.0005  0.0012 </r>
        <r>  0.0271  0.0047  0.0012  0.0070  0.0001  0.0013  0.0015  0.0003  0.0027 </r>
        <r>  0.0000  0.0056  0.0026  0.0015  0.0001  0.0001  0.0000  0.0000  0.0004 </r>
        <r>  0.0802  0.0010  0.0004  0.0007  0.0009  0.0057  0.0034  0.0026  0.0018 </r>
        <r>  0.0802  0.0010  0.0004  0.0007  0.0009  0.0057  0.0034  0.0026  0.0018 </r>
       </set>
       <set comment="band 67">
        <r>  0.0302  0.0254  0.0084  0.0001  0.0450  0.0209  0.0057  0.0438  0.1552 </r>
        <r>  0.0055  0.0100  0.0026  0.0029  0.0023  0.0199  0.0076  0.0043  0.0002 </r>
        <r>  0.0029  0.0027  0.0006  0.0016  0.0053  0.0101  0.0006  0.0030  0.0049 </r>
        <r>  0.0055  0.0100  0.0026  0.0029  0.0023  0.0199  0.0076  0.0043  0.0002 </r>
        <r>  0.0029  0.0027  0.0006  0.0016  0.0053  0.0101  0.0006  0.0030  0.0049 </r>
        <r>  0.0555  0.0060  0.0019  0.0001  0.0040  0.0015  0.0027  0.0054  0.0062 </r>
        <r>  0.0133  0.0056  0.0021  0.0129  0.0052  0.0039  0.0039  0.0003  0.0002 </r>
        <r>  0.0133  0.0056  0.0021  0.0129  0.0052  0.0039  0.0039  0.0003  0.0002 </r>
       </set>
       <set comment="band 68">
        <r>  0.0000  0.0048  0.0140  0.0004  0.0994  0.0311  0.2279  0.1492  0.0146 </r>
        <r>  0.0000  0.0049  0.0143  0.0005  0.0005  0.0001  0.0007  0.0009  0.0000 </r>
        <r>  0.0000  0.0019  0.0055  0.0002  0.0019  0.0007  0.0044  0.0030  0.0004 </r>
        <r>  0.0000  0.0049  0.0143  0.0005  0.0005  0.0001  0.0007  0.0009  0.0000 </r>
        <r>  0.0000  0.0019  0.0055  0.0002  0.0019  0.0007  0.0044  0.0030  0.0004 </r>
        <r>  0.0000  0.0012  0.0036  0.0001  0.0092  0.0007  0.0121  0.0177  0.0001 </r>
        <r>  0.0000  0.0129  0.0376  0.0012  0.0010  0.0008  0.0038  0.0011  0.0005 </r>
        <r>  0.0000  0.0129  0.0376  0.0012  0.0010  0.0008  0.0038  0.0011  0.0005 </r>
       </set>
       <set comment="band 69">
        <r>  0.0291  0.0033  0.0012  0.0000  0.0520  0.1369  0.0472  0.0683  0.0061 </r>
        <r>  0.0389  0.0003  0.0001  0.0001  0.0035  0.0072  0.0000  0.0012  0.0049 </r>
        <r>  0.0456  0.0033  0.0015  0.0041  0.0045  0.0006  0.0004  0.0018  0.0002 </r>
        <r>  0.0389  0.0003  0.0001  0.0001  0.0035  0.0072  0.0000  0.0012  0.0049 </r>
        <r>  0.0456  0.0033  0.0015  0.0041  0.0045  0.0006  0.0004  0.0018  0.0002 </r>
        <r>  0.0000  0.0012  0.0003  0.0001  0.0065  0.0303  0.0132  0.0128  0.0024 </r>
        <r>  0.0062  0.0055  0.0036  0.0089  0.0059  0.0037  0.0022  0.0058  0.0023 </r>
        <r>  0.0062  0.0055  0.0036  0.0089  0.0059  0.0037  0.0022  0.0058  0.0023 </r>
       </set>
       <set comment="band 70">
        <r>  0.0000  0.0002  0.0001  0.0001  0.0034  0.0078  0.0061  0.0004  0.0484 </r>
        <r>  0.0615  0.0060  0.0015  0.0043  0.0008  0.0031  0.0017  0.0016  0.0041 </r>
        <r>  0.0585  0.0020  0.0005  0.0044  0.0013  0.0049  0.0015  0.0016  0.0011 </r>
        <r>  0.0615  0.0060  0.0015  0.0043  0.0008  0.0031  0.0017  0.0016  0.0041 </r>
        <r>  0.0585  0.0020  0.0005  0.0044  0.0013  0.0049  0.0015  0.0016  0.0011 </r>
        <r>  0.0001  0.0001  0.0001  0.0000  0.0007  0.0046  0.0002  0.0000  0.0087 </r>
        <r>  0.0002  0.0449  0.0082  0.0380  0.0014  0.0061  0.0013  0.0001  0.0190 </r>
        <r>  0.0002  0.0449  0.0082  0.0380  0.0014  0.0061  0.0013  0.0001  0.0190 </r>
       </set>
       <set comment="band 71">
        <r>  0.0000  0.0101  0.0295  0.0009  0.0017  0.0004  0.0033  0.0028  0.0001 </r>
        <r>  0.0000  0.0001  0.0003  0.0000  0.0027  0.0066  0.0086  0.0129  0.0064 </r>
        <r>  0.0000  0.0038  0.0111  0.0004  0.0017  0.0092  0.0112  0.0128  0.0088 </r>
        <r>  0.0000  0.0001  0.0003  0.0000  0.0027  0.0066  0.0086  0.0129  0.0064 </r>
        <r>  0.0000  0.0038  0.0111  0.0004  0.0017  0.0092  0.0112  0.0128  0.0088 </r>
        <r>  0.0000  0.0217  0.0632  0.0020  0.0015  0.0010  0.0053  0.0017  0.0006 </r>
        <r>  0.0000  0.0178  0.0519  0.0016  0.0057  0.0024  0.0140  0.0089  0.0013 </r>
        <r>  0.0000  0.0178  0.0519  0.0016  0.0057  0.0024  0.0140  0.0089  0.0013 </r>
       </set>
       <set comment="band 72">
        <r>  0.0358  0.0009  0.0011  0.0078  0.0025  0.0018  0.0025  0.0040  0.0043 </r>
        <r>  0.0061  0.0064  0.0045  0.0130  0.0002  0.0004  0.0000  0.0000  0.0006 </r>
        <r>  0.0099  0.0171  0.0071  0.0018  0.0015  0.0064  0.0036  0.0001  0.0087 </r>
        <r>  0.0061  0.0064  0.0045  0.0130  0.0002  0.0004  0.0000  0.0000  0.0006 </r>
        <r>  0.0099  0.0171  0.0071  0.0018  0.0015  0.0064  0.0036  0.0001  0.0087 </r>
        <r>  0.0365  0.0011  0.0015  0.0125  0.0034  0.0160  0.0096  0.0001  0.0002 </r>
        <r>  0.0373  0.0490  0.0227  0.0173  0.0025  0.0036  0.0013  0.0003  0.0135 </r>
        <r>  0.0373  0.0490  0.0227  0.0173  0.0025  0.0036  0.0013  0.0003  0.0135 </r>
       </set>
       <set comment="band 73">
        <r>  0.0641  0.0002  0.0001  0.0079  0.0065  0.1054  0.0595  0.0053  0.0023 </r>
        <r>  0.0037  0.0104  0.0046  0.0031  0.0002  0.0103  0.0032  0.0012  0.0053 </r>
        <r>  0.0016  0.0002  0.0009  0.0157  0.0004  0.0008  0.0005  0.0000  0.0004 </r>
        <r>  0.0037  0.0104  0.0046  0.0031  0.0002  0.0103  0.0032  0.0012  0.0053 </r>
        <r>  0.0016  0.0002  0.0009  0.0157  0.0004  0.0008  0.0005  0.0000  0.0004 </r>
        <r>  0.0473  0.0024  0.0002  0.0072  0.0000  0.0004  0.0011  0.0002  0.0012 </r>
        <r>  0.0247  0.0396  0.0190  0.0321  0.0014  0.0067  0.0001  0.0005  0.0064 </r>
        <r>  0.0247  0.0396  0.0190  0.0321  0.0014  0.0067  0.0001  0.0005  0.0064 </r>
       </set>
       <set comment="band 74">
        <r>  0.0000  0.0015  0.0043  0.0001  0.0015  0.0369  0.0520  0.0294  0.0340 </r>
        <r>  0.0000  0.0103  0.0301  0.0010  0.0021  0.0030  0.0067  0.0060  0.0026 </r>
        <r>  0.0000  0.0087  0.0254  0.0008  0.0004  0.0013  0.0037  0.0003  0.0010 </r>
        <r>  0.0000  0.0103  0.0301  0.0010  0.0021  0.0030  0.0067  0.0060  0.0026 </r>
        <r>  0.0000  0.0087  0.0254  0.0008  0.0004  0.0013  0.0037  0.0003  0.0010 </r>
        <r>  0.0000  0.0001  0.0002  0.0000  0.0033  0.0097  0.0077  0.0214  0.0099 </r>
        <r>  0.0000  0.0094  0.0272  0.0009  0.0013  0.0112  0.0130  0.0138  0.0107 </r>
        <r>  0.0000  0.0094  0.0272  0.0009  0.0013  0.0112  0.0130  0.0138  0.0107 </r>
       </set>
       <set comment="band 75">
        <r>  0.0000  0.0128  0.0371  0.0012  0.0150  0.0049  0.0000  0.0529  0.0067 </r>
        <r>  0.0000  0.0081  0.0236  0.0007  0.0006  0.0013  0.0010  0.0034  0.0014 </r>
        <r>  0.0000  0.0107  0.0310  0.0010  0.0023  0.0020  0.0052  0.0059  0.0017 </r>
        <r>  0.0000  0.0081  0.0236  0.0007  0.0006  0.0013  0.0010  0.0034  0.0014 </r>
        <r>  0.0000  0.0107  0.0310  0.0010  0.0023  0.0020  0.0052  0.0059  0.0017 </r>
        <r>  0.0000  0.0012  0.0036  0.0001  0.0002  0.0042  0.0061  0.0032  0.0039 </r>
        <r>  0.0000  0.0160  0.0466  0.0015  0.0026  0.0079  0.0096  0.0141  0.0076 </r>
        <r>  0.0000  0.0160  0.0466  0.0015  0.0026  0.0079  0.0096  0.0141  0.0076 </r>
       </set>
       <set comment="band 76">
        <r>  0.0197  0.0004  0.0002  0.0198  0.0010  0.0012  0.0001  0.0002  0.0015 </r>
        <r>  0.0171  0.0047  0.0005  0.0121  0.0001  0.0001  0.0002  0.0001  0.0005 </r>
        <r>  0.0059  0.0239  0.0084  0.0171  0.0004  0.0058  0.0008  0.0001  0.0068 </r>
        <r>  0.0171  0.0047  0.0005  0.0121  0.0001  0.0001  0.0002  0.0001  0.0005 </r>
        <r>  0.0059  0.0239  0.0084  0.0171  0.0004  0.0058  0.0008  0.0001  0.0068 </r>
        <r>  0.0081  0.0615  0.0166  0.0086  0.0000  0.0075  0.0001  0.0003  0.0139 </r>
        <r>  0.0094  0.0192  0.0036  0.0302  0.0011  0.0015  0.0012  0.0002  0.0046 </r>
        <r>  0.0094  0.0192  0.0036  0.0302  0.0011  0.0015  0.0012  0.0002  0.0046 </r>
       </set>
       <set comment="band 77">
        <r>  0.0180  0.0629  0.0170  0.0090  0.0001  0.0092  0.0009  0.0014  0.0287 </r>
        <r>  0.0011  0.0166  0.0065  0.0165  0.0016  0.0038  0.0010  0.0004  0.0041 </r>
        <r>  0.0232  0.0014  0.0004  0.0138  0.0002  0.0023  0.0012  0.0007  0.0003 </r>
        <r>  0.0011  0.0166  0.0065  0.0165  0.0016  0.0038  0.0010  0.0004  0.0041 </r>
        <r>  0.0232  0.0014  0.0004  0.0138  0.0002  0.0023  0.0012  0.0007  0.0003 </r>
        <r>  0.0108  0.0039  0.0029  0.0092  0.0026  0.0007  0.0009  0.0003  0.0000 </r>
        <r>  0.0199  0.0197  0.0015  0.0645  0.0034  0.0013  0.0020  0.0002  0.0024 </r>
        <r>  0.0199  0.0197  0.0015  0.0645  0.0034  0.0013  0.0020  0.0002  0.0024 </r>
       </set>
       <set comment="band 78">
        <r>  0.0001  0.0003  0.0000  0.0084  0.0138  0.0195  0.0000  0.0041  0.0130 </r>
        <r>  0.0309  0.0247  0.0060  0.0071  0.0033  0.0004  0.0000  0.0017  0.0015 </r>
        <r>  0.0304  0.0273  0.0064  0.0093  0.0027  0.0000  0.0002  0.0019  0.0023 </r>
        <r>  0.0309  0.0247  0.0060  0.0071  0.0033  0.0004  0.0000  0.0017  0.0015 </r>
        <r>  0.0304  0.0273  0.0064  0.0093  0.0027  0.0000  0.0002  0.0019  0.0023 </r>
        <r>  0.0000  0.0003  0.0001  0.0125  0.0081  0.0063  0.0000  0.0032  0.0018 </r>
        <r>  0.0131  0.0085  0.0010  0.0232  0.0045  0.0117  0.0008  0.0027  0.0022 </r>
        <r>  0.0131  0.0085  0.0010  0.0232  0.0045  0.0117  0.0008  0.0027  0.0022 </r>
       </set>
       <set comment="band 79">
        <r>  0.0000  0.0136  0.0395  0.0012  0.0008  0.0239  0.0346  0.0176  0.0218 </r>
        <r>  0.0000  0.0074  0.0214  0.0007  0.0008  0.0039  0.0059  0.0046  0.0035 </r>
        <r>  0.0000  0.0051  0.0147  0.0005  0.0017  0.0030  0.0039  0.0072  0.0029 </r>
        <r>  0.0000  0.0074  0.0214  0.0007  0.0008  0.0039  0.0059  0.0046  0.0035 </r>
        <r>  0.0000  0.0051  0.0147  0.0005  0.0017  0.0030  0.0039  0.0072  0.0029 </r>
        <r>  0.0000  0.0090  0.0261  0.0008  0.0001  0.0070  0.0112  0.0037  0.0062 </r>
        <r>  0.0000  0.0023  0.0068  0.0002  0.0066  0.0024  0.0009  0.0229  0.0031 </r>
        <r>  0.0000  0.0023  0.0068  0.0002  0.0066  0.0024  0.0009  0.0229  0.0031 </r>
       </set>
       <set comment="band 80">
        <r>  0.0273  0.0012  0.0015  0.0117  0.0017  0.0006  0.0118  0.0017  0.0245 </r>
        <r>  0.0186  0.0053  0.0014  0.0312  0.0009  0.0000  0.0031  0.0007  0.0089 </r>
        <r>  0.0095  0.0001  0.0011  0.0337  0.0023  0.0016  0.0016  0.0000  0.0079 </r>
        <r>  0.0186  0.0053  0.0014  0.0312  0.0009  0.0000  0.0031  0.0007  0.0089 </r>
        <r>  0.0095  0.0001  0.0011  0.0337  0.0023  0.0016  0.0016  0.0000  0.0079 </r>
        <r>  0.0022  0.0067  0.0046  0.0125  0.0018  0.0005  0.0049  0.0004  0.0190 </r>
        <r>  0.0049  0.0005  0.0007  0.0245  0.0010  0.0012  0.0030  0.0030  0.0174 </r>
        <r>  0.0049  0.0005  0.0007  0.0245  0.0010  0.0012  0.0030  0.0030  0.0174 </r>
       </set>
       <set comment="band 81">
        <r>  0.0197  0.0037  0.0027  0.0078  0.0321  0.0110  0.0019  0.0197  0.0014 </r>
        <r>  0.0149  0.0085  0.0016  0.0059  0.0016  0.0024  0.0009  0.0002  0.0084 </r>
        <r>  0.0207  0.0083  0.0019  0.0067  0.0017  0.0025  0.0005  0.0002  0.0055 </r>
        <r>  0.0149  0.0085  0.0016  0.0059  0.0016  0.0024  0.0009  0.0002  0.0084 </r>
        <r>  0.0207  0.0083  0.0019  0.0067  0.0017  0.0025  0.0005  0.0002  0.0055 </r>
        <r>  0.0023  0.0027  0.0016  0.0027  0.0089  0.0026  0.0015  0.0072  0.0028 </r>
        <r>  0.0192  0.0235  0.0171  0.0552  0.0003  0.0149  0.0084  0.0037  0.0018 </r>
        <r>  0.0192  0.0235  0.0171  0.0552  0.0003  0.0149  0.0084  0.0037  0.0018 </r>
       </set>
       <set comment="band 82">
        <r> 12.4669  0.0000  0.0000  0.0000  0.0000  0.0001  0.0001  0.0000  0.0000 </r>
        <r>  0.0000  0.0000  0.0000  0.0000  0.0000  0.0000  0.0000  0.0000  0.0000 </r>
        <r>  0.0000  0.0000  0.0000  0.0000  0.0000  0.0000  0.0000  0.0000  0.0000 </r>
        <r>  0.0000  0.0000  0.0000  0.0000  0.0000  0.0000  0.0000  0.0000  0.0000 </r>
        <r>  0.0000  0.0000  0.0000  0.0000  0.0000  0.0000  0.0000  0.0000  0.0000 </r>
        <r>  0.0000  0.0000  0.0000  0.0001  0.0000  0.0000  0.0000  0.0000  0.0000 </r>
        <r>  0.0000  0.0000  0.0000  0.0000  0.0001  0.0000  0.0000  0.0000  0.0000 </r>
        <r>  0.0000  0.0000  0.0000  0.0001  0.0001  0.0000  0.0000  0.0000  0.0000 </r>
       </set>
       <set comment="band 83">
        <r>  0.0016  0.0204  0.0046  0.0081  0.0021  0.0065  0.0042  0.0004  0.0370 </r>
        <r>  0.0049  0.0099  0.0076  0.0344  0.0021  0.0041  0.0026  0.0029  0.0035 </r>
        <r>  0.0124  0.0130  0.0074  0.0201  0.0030  0.0029  0.0017  0.0034  0.0014 </r>
        <r>  0.0049  0.0099  0.0076  0.0344  0.0021  0.0041  0.0025  0.0029  0.0035 </r>
        <r>  0.0124  0.0130  0.0074  0.0201  0.0030  0.0029  0.0017  0.0034  0.0014 </r>
        <r>  0.0011  0.0082  0.0009  0.0169  0.0002  0.0037  0.0004  0.0001  0.0099 </r>
        <r>  0.0000  0.0036  0.0006  0.0041  0.0012  0.0032  0.0012  0.0003  0.0135 </r>
        <r>  0.0000  0.0036  0.0006  0.0041  0.0012  0.0032  0.0012  0.0003  0.0135 </r>
       </set>
       <set comment="band 84">
        <r>  0.0000  0.0034  0.0099  0.0003  0.0196  0.0007  0.0204  0.0404  0.0000 </r>
        <r>  0.0000  0.0017  0.0050  0.0002  0.0078  0.0007  0.0100  0.0151  0.0002 </r>
        <r>  0.0000  0.0008  0.0024  0.0001  0.0080  0.0008  0.0109  0.0152  0.0003 </r>
        <r>  0.0000  0.0017  0.0050  0.0002  0.0078  0.0007  0.0100  0.0151  0.0002 </r>
        <r>  0.0000  0.0008  0.0024  0.0001  0.0080  0.0008  0.0109  0.0152  0.0003 </r>
        <r>  0.0000  0.0025  0.0072  0.0002  0.0106  0.0006  0.0124  0.0212  0.0001 </r>
        <r>  0.0000  0.0004  0.0011  0.0000  0.0158  0.0038  0.0319  0.0253  0.0016 </r>
        <r>  0.0000  0.0004  0.0011  0.0000  0.0158  0.0038  0.0319  0.0253  0.0016 </r>
       </set>
       <set comment="band 85">
        <r>  0.0114  0.0014  0.0015  0.0093  0.0208  0.0271  0.0158  0.0011  0.0003 </r>
        <r>  0.0018  0.0018  0.0011  0.0105  0.0227  0.0022  0.0023  0.0059  0.0010 </r>
        <r>  0.0076  0.0016  0.0007  0.0001  0.0159  0.0008  0.0014  0.0041  0.0004 </r>
        <r>  0.0018  0.0018  0.0011  0.0105  0.0227  0.0022  0.0023  0.0059  0.0010 </r>
        <r>  0.0076  0.0016  0.0007  0.0001  0.0159  0.0008  0.0014  0.0041  0.0004 </r>
        <r>  0.0612  0.0007  0.0003  0.0000  0.0043  0.0058  0.0064  0.0000  0.0011 </r>
        <r>  0.0024  0.0050  0.0036  0.0114  0.0315  0.0050  0.0056  0.0063  0.0003 </r>
        <r>  0.0024  0.0050  0.0036  0.0114  0.0316  0.0050  0.0056  0.0063  0.0003 </r>
       </set>
       <set comment="band 86">
        <r>  0.0114  0.0129  0.0064  0.0057  0.0082  0.0020  0.0005  0.0052  0.0009 </r>
        <r>  0.0218  0.0044  0.0035  0.0129  0.0033  0.0021  0.0009  0.0030  0.0031 </r>
        <r>  0.0032  0.0037  0.0028  0.0093  0.0012  0.0045  0.0028  0.0006  0.0007 </r>
        <r>  0.0218  0.0044  0.0035  0.0129  0.0033  0.0021  0.0009  0.0030  0.0031 </r>
        <r>  0.0032  0.0037  0.0028  0.0093  0.0012  0.0045  0.0028  0.0006  0.0007 </r>
        <r>  0.0119  0.0043  0.0055  0.0401  0.0216  0.0001  0.0004  0.0078  0.0012 </r>
        <r>  0.0097  0.0023  0.0014  0.0034  0.0555  0.0031  0.0020  0.0273  0.0067 </r>
        <r>  0.0097  0.0023  0.0014  0.0034  0.0555  0.0031  0.0020  0.0273  0.0067 </r>
       </set>
       <set comment="band 87">
        <r>  0.0667  0.0013  0.0037  0.0510  0.0187  0.0014  0.0000  0.0088  0.0084 </r>
        <r>  0.0121  0.0006  0.0002  0.0011  0.0041  0.0030  0.0014  0.0009  0.0004 </r>
        <r>  0.0214  0.0034  0.0028  0.0114  0.0142  0.0013  0.0005  0.0057  0.0027 </r>
        <r>  0.0121  0.0006  0.0002  0.0011  0.0041  0.0030  0.0014  0.0009  0.0004 </r>
        <r>  0.0214  0.0034  0.0028  0.0114  0.0142  0.0013  0.0005  0.0057  0.0027 </r>
        <r>  0.0246  0.0038  0.0004  0.0082  0.0026  0.0054  0.0012  0.0004  0.0016 </r>
        <r>  0.0023  0.0037  0.0024  0.0066  0.0257  0.0069  0.0059  0.0069  0.0003 </r>
        <r>  0.0023  0.0037  0.0024  0.0067  0.0257  0.0069  0.0059  0.0069  0.0003 </r>
       </set>
       <set comment="band 88">
        <r>  0.0000  0.0025  0.0068  0.0002  0.0023  0.0017  0.0004  0.0087  0.0017 </r>
        <r>  0.0000  0.0049  0.0153  0.0003  0.0050  0.0006  0.0026  0.0135  0.0004 </r>
        <r>  0.0000  0.0033  0.0087  0.0001  0.0026  0.0011  0.0003  0.0084  0.0011 </r>
        <r>  0.0000  0.0058  0.0154  0.0005  0.0055  0.0004  0.0025  0.0137  0.0008 </r>
        <r>  0.0000  0.0026  0.0078  0.0004  0.0020  0.0012  0.0004  0.0078  0.0013 </r>
        <r>  0.0001  0.0055  0.0161  0.0004  0.0085  0.0002  0.0028  0.0226  0.0005 </r>
        <r>  0.0000  0.0052  0.0148  0.0004  0.0185  0.0017  0.0038  0.0478  0.0026 </r>
        <r>  0.0001  0.0050  0.0147  0.0004  0.0151  0.0022  0.0042  0.0456  0.0026 </r>
       </set>
      </set>
     </set>
    </set>
   </array>
  </projected>
 </calculation>
 <structure name="finalpos" >
  <crystal>
   <varray name="basis" >
    <v>       7.17791010      -2.17541312       0.00040017 </v>
    <v>       7.17791010       2.17541312       0.00040017 </v>
    <v>       6.51839986      -0.00000000       3.71015969 </v>
   </varray>
   <i name="volume">    115.85634335 </i>
   <varray name="rec_basis" >
    <v>       0.06966498      -0.22984140      -0.12239479 </v>
    <v>       0.06966498       0.22984140      -0.12239479 </v>
    <v>      -0.00001503      -0.00000000       0.26955658 </v>
   </varray>
  </crystal>
  <varray name="positions" >
   <v>       0.00000000       0.00000000       0.00000000 </v>
   <v>       0.37662271       0.37662271       0.37662271 </v>
   <v>       0.87377308       0.87377308       0.87377308 </v>
   <v>       0.62337729       0.62337729       0.62337729 </v>
   <v>       0.12622692       0.12622692       0.12622692 </v>
   <v>       0.50000000       0.50000000       0.50000000 </v>
   <v>       0.75034255       0.75034255       0.75034255 </v>
   <v>       0.24965745       0.24965745       0.24965745 </v>
  </varray>
 </structure>
</modeling>
