unknown system                          
            1
     7.194523   -2.181132    0.000000
     7.194523    2.181132    0.000000
     6.533279    0.000000    3.719512
   Cr   Cu   Ni   Sn
     1     4     1     2
Direct configuration=     1
   0.00000000  0.00000000  0.00000000
   0.37636200  0.37636200  0.37636200
   0.87391800  0.87391800  0.87391800
   0.62363800  0.62363800  0.62363800
   0.12608200  0.12608200  0.12608200
   0.50000000  0.50000000  0.50000000
   0.75044200  0.75044200  0.75044200
   0.24955800  0.24955800  0.24955800
unknown system                          
            1
     7.174736   -2.174320    0.000477
     7.174736    2.174320    0.000477
     6.515557   -0.000000    3.708373
   Cr   Cu   Ni   Sn
     1     4     1     2
Direct configuration=     2
   1.00000000  1.00000000  0.00000000
   0.37667268  0.37667268  0.37667268
   0.87374530  0.87374530  0.87374530
   0.62332732  0.62332732  0.62332732
   0.12625470  0.12625470  0.12625470
   0.50000000  0.50000000  0.50000000
   0.75032348  0.75032348  0.75032348
   0.24967652  0.24967652  0.24967652
unknown system                          
            1
     7.177910   -2.175413    0.000400
     7.177910    2.175413    0.000400
     6.518400   -0.000000    3.710160
   Cr   Cu   Ni   Sn
     1     4     1     2
Direct configuration=     3
   0.00000000  0.00000000  0.00000000
   0.37662271  0.37662271  0.37662271
   0.87377308  0.87377308  0.87377308
   0.62337729  0.62337729  0.62337729
   0.12622692  0.12622692  0.12622692
   0.50000000  0.50000000  0.50000000
   0.75034255  0.75034255  0.75034255
   0.24965745  0.24965745  0.24965745
