 vasp.6.3.2 27Jun22 (build Jul  3 2023 11:46:21) complex                         
 executed on    LinuxNV_CrayMPICH date 2024.04.21  02:04:49
 running on    4 total cores
 distrk:  each k-point on    4 cores,    1 groups
 distr:  one band on NCORE=   1 cores,    4 groups


--------------------------------------------------------------------------------------------------------


 INCAR:
   ADDGRID = True
   ALGO = Normal
   EDIFF = 0.0014
   ENCUT = 520.0
   IBRION = -1
   ICHARG = 0
   ISIF = 3
   ISMEAR = -5
   ISPIN = 2
   KPOINT_BSE = -1 0 0 0
   LAECHG = True
   LASPH = True
   LCHARG = True
   LELF = True
   LORBIT = 11
   LREAL = Auto
   LVHAR = True
   LWAVE = False
   MAGMOM = 4*0.6 4*7.0 20*0.6
   NELM = 1000
   NSW = 0
   PREC = accurate
   SIGMA = 0.05

 POTCAR:    PAW_PBE Cs_sv 08Apr2002               
 POTCAR:    PAW_PBE Eu 23Dec2003                  
 POTCAR:    PAW_PBE Si 05Jan2001                  
 POTCAR:    PAW_PBE S 06Sep2000                   
 POTCAR:    PAW_PBE Cs_sv 08Apr2002               
   SHA256 =  c1463496f0f6037ed62c6012a8013a89ee9ad6ffb38599dcd6c079e7ed31779b Cs_sv/POTCAR          
   COPYR  = (c) Copyright 08Apr2002 Georg Kresse                                                    
   COPYR  = This file is part of the software VASP. Any use, copying, and all other rights are regul
   COPYR  = If you do not have a valid VASP license, you may not use, copy or distribute this file. 
   VRHFIN =Cs: 5s5p6s                                                                               
   LEXCH  = PE                                                                                      
   EATOM  =   555.6835 eV,   40.8416 Ry                                                             
                                                                                                    
   TITEL  = PAW_PBE Cs_sv 08Apr2002                                                                 
   LULTRA =        F    use ultrasoft PP ?                                                          
   IUNSCR =        1    unscreen: 0-lin 1-nonlin 2-no                                               
   RPACOR =    2.200    partial core radius                                                         
   POMASS =  132.900; ZVAL   =    9.000    mass and valenz                                          
   RCORE  =    2.500    outmost cutoff radius                                                       
   RWIGS  =    2.500; RWIGS  =    1.323    wigner-seitz radius (au A)                               
   ENMAX  =  220.318; ENMIN  =  165.238 eV                                                          
   RCLOC  =    2.207    cutoff for local pot                                                        
   LCOR   =        T    correct aug charges                                                         
   LPAW   =        T    paw PP                                                                      
   EAUG   =  407.933                                                                                
   DEXC   =    0.000                                                                                
   RMAX   =    2.554    core radius for proj-oper                                                   
   RAUG   =    1.300    factor for augmentation sphere                                              
   RDEP   =    2.590    radius for radial grids                                                     
   RDEPT  =    2.117    core radius for aug-charge                                                  
                                                                                                    
   Atomic configuration                                                                             
   13 entries                                                                                       
     n  l   j            E        occ.                                                              
     1  0  0.50    -35790.1377   2.0000                                                             
     2  0  0.50     -5613.6201   2.0000                                                             
     2  1  1.50     -5035.0101   6.0000                                                             
     3  0  0.50     -1167.0767   2.0000                                                             
     3  1  1.50      -980.9754   6.0000                                                             
     3  2  2.50      -708.0703  10.0000                                                             
     4  0  0.50      -220.2386   2.0000                                                             
     4  1  1.50      -160.7596   6.0000                                                             
     4  2  2.50       -74.2354  10.0000                                                             
     5  0  0.50       -26.7287   2.0000                                                             
     6  0  0.50        -2.0862   1.0000                                                             
     5  1  1.50       -13.5159   6.0000                                                             
     5  2  2.50        -0.4136   0.0000                                                             
   Description                                                                                      
     l       E           TYP  RCUT    TYP  RCUT                                                     
     0    -26.7287425     23  1.900                                                                 
     0     -2.0862306     23  1.900                                                                 
     1    -13.5158719     23  2.500                                                                 
     1     -2.7211652     23  2.500                                                                 
     2     -0.4136171     23  2.500                                                                 
  local pseudopotential read in
  partial core-charges read in
  partial kinetic energy density read in
  atomic valenz-charges read in
  non local Contribution for L=            0  read in
    real space projection operators read in
  non local Contribution for L=            0  read in
    real space projection operators read in
  non local Contribution for L=            1  read in
    real space projection operators read in
  non local Contribution for L=            1  read in
    real space projection operators read in
  non local Contribution for L=            2  read in
    real space projection operators read in
    PAW grid and wavefunctions read in
 
   number of l-projection  operators is LMAX  =            5
   number of lm-projection operators is LMMAX =           13
 
 POTCAR:    PAW_PBE Eu 23Dec2003                  
   SHA256 =  ed303d27e7c5191953f9b15539336e6f36d9037c1d2e92e80c13d733697cb93d Eu/POTCAR             
   COPYR  = (c) Copyright 23Dec2003 Georg Kresse                                                    
   COPYR  = This file is part of the software VASP. Any use, copying, and all other rights are regul
   COPYR  = If you do not have a valid VASP license, you may not use, copy or distribute this file. 
   VRHFIN =Eu : [core=Kr4d]                                                                         
   LEXCH  = PE                                                                                      
   EATOM  =  2619.8085 eV,  192.5505 Ry                                                             
                                                                                                    
   TITEL  = PAW_PBE Eu 23Dec2003                                                                    
   LULTRA =        F    use ultrasoft PP ?                                                          
   IUNSCR =        1    unscreen: 0-lin 1-nonlin 2-no                                               
   RPACOR =    2.300    partial core radius                                                         
   POMASS =  151.965; ZVAL   =   17.000    mass and valenz                                          
   RCORE  =    2.800    outmost cutoff radius                                                       
   RWIGS  =    2.800; RWIGS  =    1.482    wigner-seitz radius (au A)                               
   ENMAX  =  249.668; ENMIN  =  187.251 eV                                                          
   RCLOC  =    2.308    cutoff for local pot                                                        
   LCOR   =        T    correct aug charges                                                         
   LPAW   =        T    paw PP                                                                      
   EAUG   =  549.628                                                                                
   DEXC   =    0.000                                                                                
   RMAX   =    2.870    core radius for proj-oper                                                   
   RAUG   =    1.300    factor for augmentation sphere                                              
   RDEP   =    2.887    radius for radial grids                                                     
   RDEPT  =    2.221    core radius for aug-charge                                                  
                                                                                                    
   Atomic configuration                                                                             
   14 entries                                                                                       
     n  l   j            E        occ.                                                              
     1  0  0.50    -48354.7667   2.0000                                                             
     2  0  0.50     -7939.6472   2.0000                                                             
     2  1  1.50     -7072.6637   6.0000                                                             
     3  0  0.50     -1747.1875   2.0000                                                             
     3  1  1.50     -1477.5221   6.0000                                                             
     3  2  2.50     -1117.4686  10.0000                                                             
     4  0  0.50      -346.8682   2.0000                                                             
     4  1  1.50      -258.1962   6.0000                                                             
     4  2  2.50      -134.7724  10.0000                                                             
     5  0  0.50       -44.6510   2.0000                                                             
     6  0  0.50        -3.6227   2.0000                                                             
     5  1  1.50       -23.7639   6.0000                                                             
     5  2  2.50        -1.3130   0.0000                                                             
     4  3  2.50        -2.7310   7.0000                                                             
   Description                                                                                      
     l       E           TYP  RCUT    TYP  RCUT                                                     
     0    -44.6510453     23  2.400                                                                 
     0     -3.6226685     23  2.400                                                                 
     1    -23.7638687     23  2.400                                                                 
     1     27.2116520     23  2.400                                                                 
     2     -1.3129622     23  2.500                                                                 
     2     13.6058260     23  2.500                                                                 
     3     -2.7309948     23  2.800                                                                 
     3     -3.4014565     23  2.800                                                                 
  local pseudopotential read in
  partial core-charges read in
  partial kinetic energy density read in
  atomic valenz-charges read in
  non local Contribution for L=            0  read in
    real space projection operators read in
  non local Contribution for L=            0  read in
    real space projection operators read in
  non local Contribution for L=            1  read in
    real space projection operators read in
  non local Contribution for L=            1  read in
    real space projection operators read in
  non local Contribution for L=            2  read in
    real space projection operators read in
  non local Contribution for L=            2  read in
    real space projection operators read in
  non local Contribution for L=            3  read in
    real space projection operators read in
  non local Contribution for L=            3  read in
    real space projection operators read in
    PAW grid and wavefunctions read in
 
   number of l-projection  operators is LMAX  =            8
   number of lm-projection operators is LMMAX =           32
 
 POTCAR:    PAW_PBE Si 05Jan2001                  
   SHA256 =  79d9987ad8750f624c4d6acb2a16d13abf6a777132adc04dc6c8399be72b42bb Si/POTCAR             
   COPYR  = (c) Copyright 05Jan2001 Georg Kresse                                                    
   COPYR  = This file is part of the software VASP. Any use, copying, and all other rights are regul
   COPYR  = If you do not have a valid VASP license, you may not use, copy or distribute this file. 
   VRHFIN =Si: s2p2                                                                                 
   LEXCH  = PE                                                                                      
   EATOM  =   103.0669 eV,    7.5752 Ry                                                             
                                                                                                    
   TITEL  = PAW_PBE Si 05Jan2001                                                                    
   LULTRA =        F    use ultrasoft PP ?                                                          
   IUNSCR =        1    unscreen: 0-lin 1-nonlin 2-no                                               
   RPACOR =    1.500    partial core radius                                                         
   POMASS =   28.085; ZVAL   =    4.000    mass and valenz                                          
   RCORE  =    1.900    outmost cutoff radius                                                       
   RWIGS  =    2.480; RWIGS  =    1.312    wigner-seitz radius (au A)                               
   ENMAX  =  245.345; ENMIN  =  184.009 eV                                                          
   ICORE  =        2    local potential                                                             
   LCOR   =        T    correct aug charges                                                         
   LPAW   =        T    paw PP                                                                      
   EAUG   =  322.069                                                                                
   DEXC   =    0.000                                                                                
   RMAX   =    1.950    core radius for proj-oper                                                   
   RAUG   =    1.300    factor for augmentation sphere                                              
   RDEP   =    1.993    radius for radial grids                                                     
   RDEPT  =    1.837    core radius for aug-charge                                                  
                                                                                                    
   Atomic configuration                                                                             
    6 entries                                                                                       
     n  l   j            E        occ.                                                              
     1  0  0.50     -1785.8828   2.0000                                                             
     2  0  0.50      -139.4969   2.0000                                                             
     2  1  1.50       -95.5546   6.0000                                                             
     3  0  0.50       -10.8127   2.0000                                                             
     3  1  0.50        -4.0811   2.0000                                                             
     3  2  1.50        -4.0817   0.0000                                                             
   Description                                                                                      
     l       E           TYP  RCUT    TYP  RCUT                                                     
     0    -10.8127223     23  1.900                                                                 
     0     -7.6451159     23  1.900                                                                 
     1     -4.0811372     23  1.900                                                                 
     1      2.4879257     23  1.900                                                                 
     2     -4.0817478      7  1.900                                                                 
  local pseudopotential read in
  partial core-charges read in
  partial kinetic energy density read in
  atomic valenz-charges read in
  non local Contribution for L=            0  read in
    real space projection operators read in
  non local Contribution for L=            0  read in
    real space projection operators read in
  non local Contribution for L=            1  read in
    real space projection operators read in
  non local Contribution for L=            1  read in
    real space projection operators read in
    PAW grid and wavefunctions read in
 
   number of l-projection  operators is LMAX  =            4
   number of lm-projection operators is LMMAX =            8
 
 POTCAR:    PAW_PBE S 06Sep2000                   
   SHA256 =  0fc7481fb0695f01bdc6462160264c5c84044ae9ec85a907d398b887a2bc3132 S/POTCAR              
   COPYR  = (c) Copyright 06Sep2000 Georg Kresse                                                    
   COPYR  = This file is part of the software VASP. Any use, copying, and all other rights are regul
   COPYR  = If you do not have a valid VASP license, you may not use, copy or distribute this file. 
   VRHFIN =S : s2p4                                                                                 
   LEXCH  = PE                                                                                      
   EATOM  =   276.8230 eV,   20.3459 Ry                                                             
                                                                                                    
   TITEL  = PAW_PBE S 06Sep2000                                                                     
   LULTRA =        F    use ultrasoft PP ?                                                          
   IUNSCR =        1    unscreen: 0-lin 1-nonlin 2-no                                               
   RPACOR =    1.500    partial core radius                                                         
   POMASS =   32.066; ZVAL   =    6.000    mass and valenz                                          
   RCORE  =    1.900    outmost cutoff radius                                                       
   RWIGS  =    2.200; RWIGS  =    1.164    wigner-seitz radius (au A)                               
   ENMAX  =  258.689; ENMIN  =  194.016 eV                                                          
   ICORE  =        2    local potential                                                             
   LCOR   =        T    correct aug charges                                                         
   LPAW   =        T    paw PP                                                                      
   EAUG   =  335.092                                                                                
   DEXC   =    0.000                                                                                
   RMAX   =    1.942    core radius for proj-oper                                                   
   RAUG   =    1.300    factor for augmentation sphere                                              
   RDEP   =    1.954    radius for radial grids                                                     
   RDEPT  =    1.744    core radius for aug-charge                                                  
                                                                                                    
   Atomic configuration                                                                             
    6 entries                                                                                       
     n  l   j            E        occ.                                                              
     1  0  0.50     -2405.8406   2.0000                                                             
     2  0  0.50      -211.7007   2.0000                                                             
     2  1  1.50      -156.4958   6.0000                                                             
     3  0  0.50       -17.2562   2.0000                                                             
     3  1  0.50        -7.0085   4.0000                                                             
     3  2  1.50        -6.8029   0.0000                                                             
   Description                                                                                      
     l       E           TYP  RCUT    TYP  RCUT                                                     
     0    -17.2561641     23  1.900                                                                 
     0    -15.8743224     23  1.900                                                                 
     1     -7.0085400     23  1.900                                                                 
     1     -2.7779785     23  1.900                                                                 
     2     -6.8029130     23  1.900                                                                 
  local pseudopotential read in
  partial core-charges read in
  partial kinetic energy density read in
  atomic valenz-charges read in
  non local Contribution for L=            0  read in
    real space projection operators read in
  non local Contribution for L=            0  read in
    real space projection operators read in
  non local Contribution for L=            1  read in
    real space projection operators read in
  non local Contribution for L=            1  read in
    real space projection operators read in
    PAW grid and wavefunctions read in
 
   number of l-projection  operators is LMAX  =            4
   number of lm-projection operators is LMMAX =            8
 
 Optimization of the real space projectors (new method)

 maximal supplied QI-value         = 15.12
 optimisation between [QCUT,QGAM] = [ 11.64, 23.28] = [ 37.95,151.78] Ry 
 Optimized for a Real-space Cutoff    1.58 Angstroem

   l    n(q)    QCUT    max X(q) W(low)/X(q) W(high)/X(q)  e(spline) 
   0     11    11.641    25.322    0.32E-04    0.44E-04    0.76E-06
   0     11    11.641    99.187    0.29E-04    0.43E-04    0.73E-06
   1     11    11.641    11.761    0.14E-03    0.20E-04    0.36E-06
   1     11    11.641     8.275    0.16E-03    0.25E-04    0.39E-06
   2     10    11.641     3.829    0.40E-04    0.12E-03    0.26E-06
 Optimization of the real space projectors (new method)

 maximal supplied QI-value         = 13.42
 optimisation between [QCUT,QGAM] = [ 11.67, 23.35] = [ 38.16,152.62] Ry 
 Optimized for a Real-space Cutoff    1.63 Angstroem

   l    n(q)    QCUT    max X(q) W(low)/X(q) W(high)/X(q)  e(spline) 
   0     11    11.673    10.400    0.14E-04    0.18E-05    0.24E-07
   0     11    11.673    10.768    0.21E-04    0.32E-05    0.49E-07
   1     11    11.673     4.094    0.40E-05    0.13E-04    0.93E-07
   1     11    11.673     4.009    0.11E-04    0.46E-04    0.33E-06
   2     10    11.673    29.030    0.79E-04    0.60E-04    0.70E-06
   2     10    11.673    19.941    0.80E-04    0.60E-04    0.71E-06
   3     10    11.673    88.889    0.23E-03    0.29E-03    0.30E-06
   3     10    11.673    76.102    0.23E-03    0.30E-03    0.30E-06
 Optimization of the real space projectors (new method)

 maximal supplied QI-value         = 19.84
 optimisation between [QCUT,QGAM] = [ 11.51, 23.22] = [ 37.09,150.92] Ry 
 Optimized for a Real-space Cutoff    1.21 Angstroem

   l    n(q)    QCUT    max X(q) W(low)/X(q) W(high)/X(q)  e(spline) 
   0      8    11.508   159.560    0.71E-04    0.15E-03    0.51E-07
   0      8    11.508   115.863    0.70E-04    0.15E-03    0.51E-07
   1      8    11.508    88.339    0.16E-03    0.38E-04    0.82E-07
   1      8    11.508    48.592    0.15E-03    0.36E-04    0.79E-07
 Optimization of the real space projectors (new method)

 maximal supplied QI-value         = 19.84
 optimisation between [QCUT,QGAM] = [ 11.51, 23.22] = [ 37.09,150.92] Ry 
 Optimized for a Real-space Cutoff    1.21 Angstroem

   l    n(q)    QCUT    max X(q) W(low)/X(q) W(high)/X(q)  e(spline) 
   0      8    11.508   187.594    0.96E-04    0.18E-03    0.54E-07
   0      8    11.508   164.243    0.96E-04    0.18E-03    0.54E-07
   1      8    11.508    67.533    0.18E-03    0.65E-04    0.94E-07
   1      8    11.508    50.729    0.18E-03    0.63E-04    0.92E-07
  PAW_PBE Cs_sv 08Apr2002               :
 energy of atom  1       EATOM= -555.6835
 kinetic energy error for atom=    0.0016 (will be added to EATOM!!)
  PAW_PBE Eu 23Dec2003                  :
 energy of atom  2       EATOM=-2619.8085
 kinetic energy error for atom=    0.0015 (will be added to EATOM!!)
  PAW_PBE Si 05Jan2001                  :
 energy of atom  3       EATOM= -103.0669
 kinetic energy error for atom=    0.0005 (will be added to EATOM!!)
  PAW_PBE S 06Sep2000                   :
 energy of atom  4       EATOM= -276.8230
 kinetic energy error for atom=    0.0016 (will be added to EATOM!!)
 
 
 POSCAR: Cs4 Eu4 Si4 S16
  positions in direct lattice
  No initial velocities read in
 exchange correlation table for  LEXCH =        8
   RHO(1)=    0.500       N(1)  =     2000
   RHO(2)=  100.500       N(2)  =     4000

 VTST: version 4.2, (08/11/21)

 CHAIN: initializing optimizer
 
 OPT: Using VASP Dynamics algorithm
 CHAIN: Read ICHAIN             0
 
 POSCAR: Cs4 Eu4 Si4 S16
  positions in direct lattice
  No initial velocities read in
 


--------------------------------------------------------------------------------------------------------


 ion  position               nearest neighbor table
   1  0.499  0.494  0.966-
   2  0.001  0.506  0.466-
   3  0.999  0.006  0.034-
   4  0.501  0.994  0.534-
   5  0.290  0.475  0.228-  18 2.88  13 2.90  25 2.92  24 2.94  28 2.95  19 3.01  21 3.03
   6  0.210  0.525  0.728-  17 2.88  14 2.90  26 2.92  23 2.94  27 2.95  20 3.01  22 3.03
   7  0.790  0.025  0.772-  20 2.88  15 2.90  27 2.92  22 2.94  26 2.95  17 3.01  23 3.03
   8  0.710  0.975  0.272-  19 2.88  16 2.90  28 2.92  21 2.94  25 2.95  18 3.01  24 3.03
   9  0.789  0.518  0.167-  13 2.12  18 2.14  21 2.14  25 2.15
  10  0.711  0.482  0.667-  14 2.12  17 2.14  22 2.14  26 2.15
  11  0.289  0.982  0.833-  15 2.12  20 2.14  23 2.14  27 2.15
  12  0.211  0.018  0.333-  16 2.12  19 2.14  24 2.14  28 2.15
  13  0.044  0.512  0.097-   9 2.12   5 2.90
  14  0.456  0.488  0.597-  10 2.12   6 2.90
  15  0.544  0.988  0.903-  11 2.12   7 2.90
  16  0.956  0.012  0.403-  12 2.12   8 2.90
  17  0.613  0.431  0.777-  10 2.14   6 2.88   7 3.01
  18  0.887  0.569  0.277-   9 2.14   5 2.88   8 3.01
  19  0.113  0.069  0.223-  12 2.14   8 2.88   5 3.01
  20  0.387  0.931  0.723-  11 2.14   7 2.88   6 3.01
  21  0.574  0.746  0.145-   9 2.14   8 2.94   5 3.03
  22  0.926  0.254  0.645-  10 2.14   7 2.94   6 3.03
  23  0.074  0.754  0.855-  11 2.14   6 2.94   7 3.03
  24  0.426  0.246  0.355-  12 2.14   5 2.94   8 3.03
  25  0.612  0.257  0.155-   9 2.15   5 2.92   8 2.95
  26  0.888  0.743  0.655-  10 2.15   6 2.92   7 2.95
  27  0.112  0.243  0.845-  11 2.15   7 2.92   6 2.95
  28  0.388  0.757  0.345-  12 2.15   8 2.92   5 2.95
 
  LATTYP: Found a simple orthorhombic cell.
 ALAT       =     6.6096250000
 B/A-ratio  =     1.0307563591
 C/A-ratio  =     2.7621688069
  
  Lattice vectors:
  
 A1 = (   6.6096250000,   0.0000000000,   0.0000000000)
 A2 = (   0.0000000000,   6.8129130000,   0.0000000000)
 A3 = (   0.0000000000,   0.0000000000,  18.2569000000)


Analysis of symmetry for initial positions (statically):
=====================================================================
 Subroutine PRICEL returns:
 Original cell was already a primitive cell.
 

 Routine SETGRP: Setting up the symmetry group for a 
 simple orthorhombic supercell.


 Subroutine GETGRP returns: Found  4 space group operations
 (whereof  1 operations were pure point group operations)
 out of a pool of  8 trial point group operations.


The static configuration has the point symmetry C_1 .
 The point group associated with its full space group is D_2 .


Analysis of symmetry for dynamics (positions and initial velocities):
=====================================================================
 Subroutine PRICEL returns:
 Original cell was already a primitive cell.
 

 Routine SETGRP: Setting up the symmetry group for a 
 simple orthorhombic supercell.


 Subroutine GETGRP returns: Found  4 space group operations
 (whereof  1 operations were pure point group operations)
 out of a pool of  8 trial point group operations.


The dynamic configuration has the point symmetry C_1 .
 The point group associated with its full space group is D_2 .


Analysis of structural, dynamic, and magnetic symmetry:
=====================================================================
 Subroutine PRICEL returns:
 Original cell was already a primitive cell.
 

 Routine SETGRP: Setting up the symmetry group for a 
 simple orthorhombic supercell.


 Subroutine GETGRP returns: Found  4 space group operations
 (whereof  1 operations were pure point group operations)
 out of a pool of  8 trial point group operations.


The overall configuration has the point symmetry C_1 .
 The point group associated with its full space group is D_2 .


 Subroutine INISYM returns: Found  4 space group operations
 (whereof  1 operations are pure point group operations),
 and found     1 'primitive' translations


----------------------------------------------------------------------------------------

                                     Primitive cell                                     

  volume of cell :     822.1228

  direct lattice vectors                    reciprocal lattice vectors
     6.609625000  0.000000000  0.000000000     0.151294514  0.000000000  0.000000000
     0.000000000  6.812913000  0.000000000     0.000000000  0.146780092  0.000000000
     0.000000000  0.000000000 18.256900000     0.000000000  0.000000000  0.054773812

  length of vectors
     6.609625000  6.812913000 18.256900000     0.151294514  0.146780092  0.054773812

  position of ions in fractional coordinates (direct lattice)
     0.499141000  0.493803000  0.966226000
     0.000859000  0.506197000  0.466226000
     0.999141000  0.006197000  0.033774000
     0.500859000  0.993803000  0.533774000
     0.290406000  0.475383000  0.227692000
     0.209594000  0.524617000  0.727692000
     0.790406000  0.024617000  0.772308000
     0.709594000  0.975383000  0.272308000
     0.789479000  0.518265000  0.167202000
     0.710521000  0.481735000  0.667202000
     0.289479000  0.981735000  0.832798000
     0.210521000  0.018265000  0.332798000
     0.044412000  0.512445000  0.097076000
     0.455588000  0.487555000  0.597076000
     0.544412000  0.987555000  0.902924000
     0.955588000  0.012445000  0.402924000
     0.612648000  0.431102000  0.777094000
     0.887352000  0.568898000  0.277094000
     0.112648000  0.068898000  0.222906000
     0.387352000  0.931102000  0.722906000
     0.574342000  0.745833000  0.144894000
     0.925658000  0.254167000  0.644894000
     0.074342000  0.754167000  0.855106000
     0.425658000  0.245833000  0.355106000
     0.611801000  0.256839000  0.154676000
     0.888199000  0.743161000  0.654676000
     0.111801000  0.243161000  0.845324000
     0.388199000  0.756839000  0.345324000

  ion indices of the primitive-cell ions
   primitive index   ion index
                 1           1
                 2           2
                 3           3
                 4           4
                 5           5
                 6           6
                 7           7
                 8           8
                 9           9
                10          10
                11          11
                12          12
                13          13
                14          14
                15          15
                16          16
                17          17
                18          18
                19          19
                20          20
                21          21
                22          22
                23          23
                24          24
                25          25
                26          26
                27          27
                28          28

----------------------------------------------------------------------------------------

 
 
 KPOINTS: Kpoints from vasprun.xml                

Automatic generation of k-mesh.
 Grid dimensions read from file:
 generate k-points for:    4    4    1

 Generating k-lattice:

  Cartesian coordinates                     Fractional coordinates (reciprocal lattice)
     0.037823628  0.000000000  0.000000000     0.250000000  0.000000000  0.000000000
     0.000000000  0.036695023  0.000000000     0.000000000  0.250000000  0.000000000
     0.000000000  0.000000000  0.054773812     0.000000000  0.000000000  1.000000000

  Length of vectors
     0.037823628  0.036695023  0.054773812

  Shift w.r.t. Gamma in fractional coordinates (k-lattice)
     0.000000000  0.000000000  0.000000000

 TETIRR: Found     48 inequivalent tetrahedra from       96
 
 Subroutine IBZKPT returns following result:
 ===========================================
 
 Found      9 irreducible k-points:
 
 Following reciprocal coordinates:
            Coordinates               Weight
  0.000000  0.000000  0.000000      1.000000
  0.250000  0.000000  0.000000      2.000000
  0.500000  0.000000  0.000000      1.000000
  0.000000  0.250000  0.000000      2.000000
  0.250000  0.250000  0.000000      4.000000
  0.500000  0.250000  0.000000      2.000000
  0.000000  0.500000  0.000000      1.000000
  0.250000  0.500000  0.000000      2.000000
  0.500000  0.500000  0.000000      1.000000
 
 Following cartesian coordinates:
            Coordinates               Weight
  0.000000  0.000000  0.000000      1.000000
  0.037824  0.000000  0.000000      2.000000
  0.075647  0.000000  0.000000      1.000000
  0.000000  0.036695  0.000000      2.000000
  0.037824  0.036695  0.000000      4.000000
  0.075647  0.036695  0.000000      2.000000
  0.000000  0.073390  0.000000      1.000000
  0.037824  0.073390  0.000000      2.000000
  0.075647  0.073390  0.000000      1.000000
 


--------------------------------------------------------------------------------------------------------




 Dimension of arrays:
   k-points           NKPTS =      9   k-points in BZ     NKDIM =      9   number of bands    NBANDS=    152
   number of dos      NEDOS =    301   number of ions     NIONS =     28
   non local maximal  LDIM  =      8   non local SUM 2l+1 LMDIM =     32
   total plane-waves  NPLWV = 378000
   max r-space proj   IRMAX =   8348   max aug-charges    IRDMAX= 210456
   dimension x,y,z NGX =    50 NGY =   54 NGZ =  140
   dimension x,y,z NGXF=   100 NGYF=  108 NGZF=  280
   support grid    NGXF=   200 NGYF=  216 NGZF=  560
   ions per type =               4   4   4  16
   NGX,Y,Z   is equivalent  to a cutoff of  12.58, 13.18, 12.75 a.u.
   NGXF,Y,Z  is equivalent  to a cutoff of  25.15, 26.35, 25.50 a.u.

 SYSTEM =  unknown system                          
 POSCAR =  Cs4 Eu4 Si4 S16                         

 Startparameter for this run:
   NWRITE =      2    write-flag & timer
   PREC   = accura    normal or accurate (medium, high low for compatibility)
   ISTART =      0    job   : 0-new  1-cont  2-samecut
   ICHARG =      0    charge: 1-file 2-atom 10-const
   ISPIN  =      2    spin polarized calculation?
   LNONCOLLINEAR =      F non collinear calculations
   LSORBIT =      F    spin-orbit coupling
   INIWAV =      1    electr: 0-lowe 1-rand  2-diag
   LASPH  =      T    aspherical Exc in radial PAW
 Electronic Relaxation 1
   ENCUT  =  520.0 eV  38.22 Ry    6.18 a.u.  12.29 12.67 33.95*2*pi/ulx,y,z
   ENINI  =  520.0     initial cutoff
   ENAUG  =  549.6 eV  augmentation charge cutoff
   NELM   =   1000;   NELMIN=  2; NELMDL= -5     # of ELM steps 
   EDIFF  = 0.1E-02   stopping-criterion for ELM
   LREAL  =      T    real-space projection
   NLSPLINE    = F    spline interpolate recip. space projectors
   LCOMPAT=      F    compatible to vasp.4.4
   GGA_COMPAT  = T    GGA compatible to vasp.4.4-vasp.4.6
   LMAXPAW     = -100 max onsite density
   LMAXMIX     =    2 max onsite mixed and CHGCAR
   VOSKOWN=      0    Vosko Wilk Nusair interpolation
   ROPT   =   -0.00025  -0.00025  -0.00025  -0.00025
 Ionic relaxation
   EDIFFG = 0.1E-01   stopping-criterion for IOM
   NSW    =      0    number of steps for IOM
   NBLOCK =      1;   KBLOCK =      1    inner block; outer block 
   IBRION =     -1    ionic relax: 0-MD 1-quasi-New 2-CG
   NFREE  =      0    steps in history (QN), initial steepest desc. (CG)
   ISIF   =      3    stress and relaxation
   IWAVPR =     10    prediction:  0-non 1-charg 2-wave 3-comb
   ISYM   =      2    0-nonsym 1-usesym 2-fastsym
   LCORR  =      T    Harris-Foulkes like correction to forces

   POTIM  = 0.5000    time-step for ionic-motion
   TEIN   =    0.0    initial temperature
   TEBEG  =    0.0;   TEEND  =   0.0 temperature during run
   SMASS  =  -3.00    Nose mass-parameter (am)
   estimated Nose-frequenzy (Omega)   =  0.10E-29 period in steps = 0.13E+47 mass=  -0.998E-27a.u.
   SCALEE = 1.0000    scale energy and forces
   NPACO  =    256;   APACO  = 10.0  distance and # of slots for P.C.
   PSTRESS=    0.0 pullay stress

  Mass of Ions in am
   POMASS = 132.90151.97 28.09 32.07
  Ionic Valenz
   ZVAL   =   9.00 17.00  4.00  6.00
  Atomic Wigner-Seitz radii
   RWIGS  =  -1.00 -1.00 -1.00 -1.00
  virtual crystal weights 
   VCA    =   1.00  1.00  1.00  1.00
   NELECT =     216.0000    total number of electrons
   NUPDOWN=      -1.0000    fix difference up-down

 DOS related values:
   EMIN   =  10.00;   EMAX   =-10.00  energy-range for DOS
   EFERMI =   0.00
   ISMEAR =    -5;   SIGMA  =   0.05  broadening in eV -4-tet -1-fermi 0-gaus

 Electronic relaxation 2 (details)
   IALGO  =     38    algorithm
   LDIAG  =      T    sub-space diagonalisation (order eigenvalues)
   LSUBROT=      F    optimize rotation matrix (better conditioning)
   TURBO    =      0    0=normal 1=particle mesh
   IRESTART =      0    0=no restart 2=restart with 2 vectors
   NREBOOT  =      0    no. of reboots
   NMIN     =      0    reboot dimension
   EREF     =   0.00    reference energy to select bands
   IMIX   =      4    mixing-type and parameters
     AMIX     =   0.40;   BMIX     =  1.00
     AMIX_MAG =   1.60;   BMIX_MAG =  1.00
     AMIN     =   0.10
     WC   =   100.;   INIMIX=   1;  MIXPRE=   1;  MAXMIX= -45

 Intra band minimization:
   WEIMIN = 0.0000     energy-eigenvalue tresh-hold
   EBREAK =  0.23E-05  absolut break condition
   DEPER  =   0.30     relativ break condition  

   TIME   =   0.40     timestep for ELM

  volume/ion in A,a.u.               =      29.36       198.14
  Fermi-wavevector in a.u.,A,eV,Ry     =   1.048529  1.981433 14.958428  1.099413
  Thomas-Fermi vector in A             =   2.183455
 
 Write flags
   LWAVE        =      F    write WAVECAR
   LDOWNSAMPLE  =      F    k-point downsampling of WAVECAR
   LCHARG       =      T    write CHGCAR
   LVTOT        =      F    write LOCPOT, total local potential
   LVHAR        =      T    write LOCPOT, Hartree potential only
   LELF         =      T    write electronic localiz. function (ELF)
   LORBIT       =     11    0 simple, 1 ext, 2 COOP (PROOUT), +10 PAW based schemes


 Dipole corrections
   LMONO  =      F    monopole corrections only (constant potential shift)
   LDIPOL =      F    correct potential (dipole corrections)
   IDIPOL =      0    1-x, 2-y, 3-z, 4-all directions 
   EPSILON=  1.0000000 bulk dielectric constant

 Exchange correlation treatment:
   GGA     =    --    GGA type
   LEXCH   =     8    internal setting for exchange type
   LIBXC   =     F    Libxc                    
   VOSKOWN =     0    Vosko Wilk Nusair interpolation
   LHFCALC =     F    Hartree Fock is set to
   LHFONE  =     F    Hartree Fock one center treatment
   AEXX    =    0.0000 exact exchange contribution

 Linear response parameters
   LEPSILON=     F    determine dielectric tensor
   LRPA    =     F    only Hartree local field effects (RPA)
   LNABLA  =     F    use nabla operator in PAW spheres
   LVEL    =     F    velocity operator in full k-point grid
   CSHIFT  =0.1000    complex shift for real part using Kramers Kronig
   OMEGAMAX=  -1.0    maximum frequency
   DEG_THRESHOLD= 0.2000000E-02 threshold for treating states as degnerate
   RTIME   =   -0.100 relaxation time in fs
  (WPLASMAI=    0.000 imaginary part of plasma frequency in eV, 0.658/RTIME)
   DFIELD  = 0.0000000 0.0000000 0.0000000 field for delta impulse in time
 
  Optional k-point grid parameters
   LKPOINTS_OPT  =     F    use optional k-point grid
   KPOINTS_OPT_MODE=     1    mode for optional k-point grid
 
 Orbital magnetization related:
   ORBITALMAG=     F  switch on orbital magnetization
   LCHIMAG   =     F  perturbation theory with respect to B field
   DQ        =  0.001000  dq finite difference perturbation B field
   LLRAUG    =     F  two centre corrections for induced B field



--------------------------------------------------------------------------------------------------------


 Static calculation
 charge density and potential will be updated during run
 spin polarized calculation
 Variant of blocked Davidson
 Davidson routine will perform the subspace rotation
 perform sub-space diagonalisation
    after iterative eigenvector-optimisation
 modified Broyden-mixing scheme, WC =      100.0
 initial mixing is a Kerker type mixing with AMIX =  0.4000 and BMIX =      1.0000
 Hartree-type preconditioning will be used
 using additional bands            44
 real space projection scheme for non local part
 use partial core corrections
 calculate Harris-corrections to forces 
   (improved forces if not selfconsistent)
 use gradient corrections 
 use of overlap-Matrix (Vanderbilt PP)
 Fermi weights with tetrahedron method with Bloechl corrections


--------------------------------------------------------------------------------------------------------


  energy-cutoff  :      520.00
  volume of cell :      822.12
      direct lattice vectors                 reciprocal lattice vectors
     6.609625000  0.000000000  0.000000000     0.151294514  0.000000000  0.000000000
     0.000000000  6.812913000  0.000000000     0.000000000  0.146780092  0.000000000
     0.000000000  0.000000000 18.256900000     0.000000000  0.000000000  0.054773812

  length of vectors
     6.609625000  6.812913000 18.256900000     0.151294514  0.146780092  0.054773812


 
 k-points in units of 2pi/SCALE and weight: Kpoints from vasprun.xml                
   0.00000000  0.00000000  0.00000000       0.063
   0.03782363  0.00000000  0.00000000       0.125
   0.07564726  0.00000000  0.00000000       0.063
   0.00000000  0.03669502  0.00000000       0.125
   0.03782363  0.03669502  0.00000000       0.250
   0.07564726  0.03669502  0.00000000       0.125
   0.00000000  0.07339005  0.00000000       0.063
   0.03782363  0.07339005  0.00000000       0.125
   0.07564726  0.07339005  0.00000000       0.063
 
 k-points in reciprocal lattice and weights: Kpoints from vasprun.xml                
   0.00000000  0.00000000  0.00000000       0.063
   0.25000000  0.00000000  0.00000000       0.125
   0.50000000  0.00000000  0.00000000       0.063
   0.00000000  0.25000000  0.00000000       0.125
   0.25000000  0.25000000  0.00000000       0.250
   0.50000000  0.25000000  0.00000000       0.125
   0.00000000  0.50000000  0.00000000       0.063
   0.25000000  0.50000000  0.00000000       0.125
   0.50000000  0.50000000  0.00000000       0.063
 
 position of ions in fractional coordinates (direct lattice) 
   0.49914100  0.49380300  0.96622600
   0.00085900  0.50619700  0.46622600
   0.99914100  0.00619700  0.03377400
   0.50085900  0.99380300  0.53377400
   0.29040600  0.47538300  0.22769200
   0.20959400  0.52461700  0.72769200
   0.79040600  0.02461700  0.77230800
   0.70959400  0.97538300  0.27230800
   0.78947900  0.51826500  0.16720200
   0.71052100  0.48173500  0.66720200
   0.28947900  0.98173500  0.83279800
   0.21052100  0.01826500  0.33279800
   0.04441200  0.51244500  0.09707600
   0.45558800  0.48755500  0.59707600
   0.54441200  0.98755500  0.90292400
   0.95558800  0.01244500  0.40292400
   0.61264800  0.43110200  0.77709400
   0.88735200  0.56889800  0.27709400
   0.11264800  0.06889800  0.22290600
   0.38735200  0.93110200  0.72290600
   0.57434200  0.74583300  0.14489400
   0.92565800  0.25416700  0.64489400
   0.07434200  0.75416700  0.85510600
   0.42565800  0.24583300  0.35510600
   0.61180100  0.25683900  0.15467600
   0.88819900  0.74316100  0.65467600
   0.11180100  0.24316100  0.84532400
   0.38819900  0.75683900  0.34532400
 
 position of ions in cartesian coordinates  (Angst):
   3.29913483  3.36423688 17.64029146
   0.00567767  3.44867612  8.51184146
   6.60394733  0.04221962  0.61660854
   3.31049017  6.77069338  9.74505854
   1.91947476  3.23874302  4.15695007
   1.38533774  3.57416998 13.28540007
   5.22428726  0.16771348 14.09994993
   4.69015024  6.64519952  4.97149993
   5.21816014  3.53089436  3.05259019
   4.69627736  3.28201864 12.18104019
   1.91334764  6.68847514 15.20430981
   1.39146486  0.12443786  6.07585981
   0.29354667  3.49124320  1.77230682
   3.01126583  3.32166980 10.90075682
   3.59835917  6.72812630 16.48459318
   6.31607833  0.08478670  7.35614318
   4.04937354  2.93706042 14.18732745
   5.86506396  3.87585258  5.05887745
   0.74456104  0.46939608  4.06957255
   2.56025146  6.34351692 13.19802255
   3.79618524  5.08129534  2.64531527
   6.11825226  1.73161766 11.77376527
   0.49137274  5.13807416 15.61158473
   2.81343976  1.67483884  6.48313473
   4.04377518  1.74982176  2.82390426
   5.87066232  5.06309124 11.95235426
   0.73896268  1.65663474 15.43299574
   2.56584982  5.15627826  6.30454574
 


--------------------------------------------------------------------------------------------------------


 k-point   1 :   0.0000 0.0000 0.0000  plane waves:   22135
 k-point   2 :   0.2500 0.0000 0.0000  plane waves:   22117
 k-point   3 :   0.5000 0.0000 0.0000  plane waves:   22120
 k-point   4 :   0.0000 0.2500 0.0000  plane waves:   22165
 k-point   5 :   0.2500 0.2500 0.0000  plane waves:   22115
 k-point   6 :   0.5000 0.2500 0.0000  plane waves:   22124
 k-point   7 :   0.0000 0.5000 0.0000  plane waves:   22142
 k-point   8 :   0.2500 0.5000 0.0000  plane waves:   22150
 k-point   9 :   0.5000 0.5000 0.0000  plane waves:   22144

 maximum and minimum number of plane-waves per node :     22165    22115

 maximum number of plane-waves:     22165
 maximum index in each direction: 
   IXMAX=   12   IYMAX=   12   IZMAX=   33
   IXMIN=  -12   IYMIN=  -13   IZMIN=  -33


 serial   3D FFT for wavefunctions
 parallel 3D FFT for charge:
    minimum data exchange during FFTs selected (reduces bandwidth)


 total amount of memory used by VASP MPI-rank0   515500. kBytes
=======================================================================

   base      :      30000. kBytes
   nonlr-proj:      21097. kBytes
   fftplans  :     111990. kBytes
   grid      :     103334. kBytes
   one-center:       2752. kBytes
   wavefun   :     246327. kBytes
 
     INWAV:  cpu time      0.0001: real time      0.0004
 Broyden mixing: mesh for mixing (old mesh)
   NGX = 25   NGY = 25   NGZ = 67
  (NGX  =100   NGY  =108   NGZ  =280)
  gives a total of  41875 points

 charge density for first step will be calculated from the start-wavefunctions


--------------------------------------------------------------------------------------------------------


 Maximum index for non-local projection operator          8056
 Maximum index for augmentation-charges         51080 (set IRDMAX)


--------------------------------------------------------------------------------------------------------


 initial charge from wavefunction
 First call to EWALD:  gamma=   0.189
 Maximum number of real-space cells 4x 4x 2
 Maximum number of reciprocal cells 2x 2x 5

    FEWALD:  cpu time      0.0018: real time      0.0018


--------------------------------------- Iteration      1(   1)  ---------------------------------------


    POTLOK:  cpu time      0.1384: real time      0.2080
    SETDIJ:  cpu time      2.7317: real time      2.7332
     EDDAV:  cpu time      4.1471: real time      4.1547
 BZINTS: Fermi energy:   19.353381;  216.000000 electrons
         Band energy:-0.145505E+05;  BLOECHL correction:   -1.078965
       DOS:  cpu time      0.0645: real time      0.0645
    --------------------------------------------
      LOOP:  cpu time      7.0816: real time      7.1603

 eigenvalue-minimisations  :  9600
 total energy-change (2. order) :-0.6955032E+04  (-0.1789868E+05)
 number of electron     216.0000000 magnetization      -0.0000000
 augmentation part        5.7083486 magnetization       0.0143349

 Free energy of the ion-electron system (eV)
  ---------------------------------------------------
  alpha Z        PSCENC =       639.59054450
  Ewald energy   TEWEN  =    -10758.98852080
  -Hartree energ DENC   =      -216.67182215
  -exchange      EXHF   =         0.00000000
  -V(xc)+E(xc)   XCENC  =       332.25112909
  PAW double counting   =    585411.13216342  -585355.19565994
  entropy T*S    EENTRO =         0.00000000
  eigenvalues    EBANDS =    -14550.51358247
  atomic energy  EATOM  =     17543.36372049
  Solvation  Ediel_sol  =         0.00000000
  ---------------------------------------------------
  free energy    TOTEN  =     -6955.03202786 eV

  energy without entropy =    -6955.03202786  energy(sigma->0) =    -6955.03202786


--------------------------------------------------------------------------------------------------------




--------------------------------------- Iteration      1(   2)  ---------------------------------------


     EDDAV:  cpu time      3.3527: real time      3.3566
 BZINTS: Fermi energy:  -32.984614;  216.000000 electrons
         Band energy:-0.224827E+05;  BLOECHL correction:   -0.379820
       DOS:  cpu time      0.0592: real time      0.0592
    --------------------------------------------
      LOOP:  cpu time      3.4119: real time      3.4158

 eigenvalue-minimisations  :  7672
 total energy-change (2. order) :-0.7932221E+04  (-0.7564369E+04)
 number of electron     216.0000000 magnetization      -0.0000000
 augmentation part        5.7083486 magnetization       0.0143349

 Free energy of the ion-electron system (eV)
  ---------------------------------------------------
  alpha Z        PSCENC =       639.59054450
  Ewald energy   TEWEN  =    -10758.98852080
  -Hartree energ DENC   =      -216.67182215
  -exchange      EXHF   =         0.00000000
  -V(xc)+E(xc)   XCENC  =       332.25112909
  PAW double counting   =    585411.13216342  -585355.19565994
  entropy T*S    EENTRO =         0.00000000
  eigenvalues    EBANDS =    -22482.73420460
  atomic energy  EATOM  =     17543.36372049
  Solvation  Ediel_sol  =         0.00000000
  ---------------------------------------------------
  free energy    TOTEN  =    -14887.25264999 eV

  energy without entropy =   -14887.25264999  energy(sigma->0) =   -14887.25264999


--------------------------------------------------------------------------------------------------------




--------------------------------------- Iteration      1(   3)  ---------------------------------------


     EDDAV:  cpu time      3.6846: real time      3.6880
 BZINTS: Fermi energy:  -41.001619;  216.000000 electrons
         Band energy:-0.239163E+05;  BLOECHL correction:   -0.010751
       DOS:  cpu time      0.0513: real time      0.0514
    --------------------------------------------
      LOOP:  cpu time      3.7359: real time      3.7394

 eigenvalue-minimisations  :  8560
 total energy-change (2. order) :-0.1433603E+04  (-0.1379740E+04)
 number of electron     216.0000000 magnetization      -0.0000000
 augmentation part        5.7083486 magnetization       0.0143349

 Free energy of the ion-electron system (eV)
  ---------------------------------------------------
  alpha Z        PSCENC =       639.59054450
  Ewald energy   TEWEN  =    -10758.98852080
  -Hartree energ DENC   =      -216.67182215
  -exchange      EXHF   =         0.00000000
  -V(xc)+E(xc)   XCENC  =       332.25112909
  PAW double counting   =    585411.13216342  -585355.19565994
  entropy T*S    EENTRO =         0.00000000
  eigenvalues    EBANDS =    -23916.33679631
  atomic energy  EATOM  =     17543.36372049
  Solvation  Ediel_sol  =         0.00000000
  ---------------------------------------------------
  free energy    TOTEN  =    -16320.85524170 eV

  energy without entropy =   -16320.85524170  energy(sigma->0) =   -16320.85524170


--------------------------------------------------------------------------------------------------------




--------------------------------------- Iteration      1(   4)  ---------------------------------------


     EDDAV:  cpu time      4.1470: real time      4.1512
 BZINTS: Fermi energy:  -41.874179;  216.000000 electrons
         Band energy:-0.244988E+05;  BLOECHL correction:   -0.090489
       DOS:  cpu time      0.0540: real time      0.0540
    --------------------------------------------
      LOOP:  cpu time      4.2010: real time      4.2052

 eigenvalue-minimisations  :  9752
 total energy-change (2. order) :-0.5824493E+03  (-0.5423087E+03)
 number of electron     216.0000000 magnetization      -0.0000000
 augmentation part        5.7083486 magnetization       0.0143349

 Free energy of the ion-electron system (eV)
  ---------------------------------------------------
  alpha Z        PSCENC =       639.59054450
  Ewald energy   TEWEN  =    -10758.98852080
  -Hartree energ DENC   =      -216.67182215
  -exchange      EXHF   =         0.00000000
  -V(xc)+E(xc)   XCENC  =       332.25112909
  PAW double counting   =    585411.13216342  -585355.19565994
  entropy T*S    EENTRO =         0.00000000
  eigenvalues    EBANDS =    -24498.78609480
  atomic energy  EATOM  =     17543.36372049
  Solvation  Ediel_sol  =         0.00000000
  ---------------------------------------------------
  free energy    TOTEN  =    -16903.30454019 eV

  energy without entropy =   -16903.30454019  energy(sigma->0) =   -16903.30454019


--------------------------------------------------------------------------------------------------------




--------------------------------------- Iteration      1(   5)  ---------------------------------------


     EDDAV:  cpu time      3.8540: real time      3.8573
 BZINTS: Fermi energy:  -42.609330;  216.000000 electrons
         Band energy:-0.248084E+05;  BLOECHL correction:   -0.073440
       DOS:  cpu time      0.0517: real time      0.0518
    CHARGE:  cpu time      0.3904: real time      0.3906
    MIXING:  cpu time      0.0073: real time      0.0073
    --------------------------------------------
      LOOP:  cpu time      4.3034: real time      4.3071

 eigenvalue-minimisations  :  8992
 total energy-change (2. order) :-0.3095659E+03  (-0.2797737E+03)
 number of electron     216.0000000 magnetization       0.0431624
 augmentation part       -8.5032166 magnetization      -0.1700744

 Broyden mixing:
  rms(total) = 0.13181E+03    rms(broyden)= 0.13180E+03
  rms(prec ) = 0.13672E+03
  weight for this iteration     100.00

 Free energy of the ion-electron system (eV)
  ---------------------------------------------------
  alpha Z        PSCENC =       639.59054450
  Ewald energy   TEWEN  =    -10758.98852080
  -Hartree energ DENC   =      -216.67182215
  -exchange      EXHF   =         0.00000000
  -V(xc)+E(xc)   XCENC  =       332.25112909
  PAW double counting   =    585411.13216342  -585355.19565994
  entropy T*S    EENTRO =         0.00000000
  eigenvalues    EBANDS =    -24808.35198669
  atomic energy  EATOM  =     17543.36372049
  Solvation  Ediel_sol  =         0.00000000
  ---------------------------------------------------
  free energy    TOTEN  =    -17212.87043208 eV

  energy without entropy =   -17212.87043208  energy(sigma->0) =   -17212.87043208


--------------------------------------------------------------------------------------------------------




--------------------------------------- Iteration      1(   6)  ---------------------------------------


    POTLOK:  cpu time      0.0146: real time      0.0155
    SETDIJ:  cpu time      2.7363: real time      2.7374
     EDDAV:  cpu time      4.1195: real time      4.1223
 BZINTS: Fermi energy:   -1.712405;  216.000000 electrons
         Band energy:-0.455461E+04;  BLOECHL correction:   -0.177986
       DOS:  cpu time      0.0596: real time      0.0596
    CHARGE:  cpu time      0.3893: real time      0.3896
    MIXING:  cpu time      0.0077: real time      0.0100
    --------------------------------------------
      LOOP:  cpu time      7.3270: real time      7.3345

 eigenvalue-minimisations  :  9688
 total energy-change (2. order) : 0.1460344E+05  (-0.4798462E+04)
 number of electron     216.0000000 magnetization      -0.0218676
 augmentation part       -7.7613956 magnetization       0.4121164

 Broyden mixing:
  rms(total) = 0.31553E+02    rms(broyden)= 0.31532E+02
  rms(prec ) = 0.35549E+02
  weight for this iteration     100.00

 eigenvalues of (default mixing * dielectric matrix)
  average eigenvalue GAMMA=   0.8384
  0.8384

 Free energy of the ion-electron system (eV)
  ---------------------------------------------------
  alpha Z        PSCENC =       639.59054450
  Ewald energy   TEWEN  =    -10758.98852080
  -Hartree energ DENC   =     -6036.78177152
  -exchange      EXHF   =         0.00000000
  -V(xc)+E(xc)   XCENC  =       536.11901095
  PAW double counting   =    376641.67621027  -376619.80165739
  entropy T*S    EENTRO =         0.00000000
  eigenvalues    EBANDS =     -4554.61134438
  atomic energy  EATOM  =     17543.36372049
  Solvation  Ediel_sol  =         0.00000000
  ---------------------------------------------------
  free energy    TOTEN  =     -2609.43380788 eV

  energy without entropy =    -2609.43380788  energy(sigma->0) =    -2609.43380788


--------------------------------------------------------------------------------------------------------




--------------------------------------- Iteration      1(   7)  ---------------------------------------


    POTLOK:  cpu time      0.0145: real time      0.0153
    SETDIJ:  cpu time      2.7530: real time      2.7545
     EDDAV:  cpu time      3.1446: real time      3.1473
 BZINTS: Fermi energy:   -5.551157;  216.000000 electrons
         Band energy:-0.410301E+04;  BLOECHL correction:   -0.090639
       DOS:  cpu time      0.0556: real time      0.0557
    CHARGE:  cpu time      0.3895: real time      0.3899
    MIXING:  cpu time      0.0069: real time      0.0069
    --------------------------------------------
      LOOP:  cpu time      6.3642: real time      6.3696

 eigenvalue-minimisations  :  7072
 total energy-change (2. order) : 0.1562064E+04  (-0.8800292E+03)
 number of electron     216.0000001 magnetization      -0.0099551
 augmentation part       34.7217176 magnetization      -0.3884326

 Broyden mixing:
  rms(total) = 0.33673E+02    rms(broyden)= 0.33673E+02
  rms(prec ) = 0.35871E+02
  weight for this iteration     100.00

 eigenvalues of (default mixing * dielectric matrix)
  average eigenvalue GAMMA=   0.5423
  0.8393  0.2453

 Free energy of the ion-electron system (eV)
  ---------------------------------------------------
  alpha Z        PSCENC =       639.59054450
  Ewald energy   TEWEN  =    -10758.98852080
  -Hartree energ DENC   =     -4909.31634609
  -exchange      EXHF   =         0.00000000
  -V(xc)+E(xc)   XCENC  =       479.85212282
  PAW double counting   =    355732.91087560  -355671.77662376
  entropy T*S    EENTRO =         0.00000000
  eigenvalues    EBANDS =     -4103.00575231
  atomic energy  EATOM  =     17543.36372049
  Solvation  Ediel_sol  =         0.00000000
  ---------------------------------------------------
  free energy    TOTEN  =     -1047.36997955 eV

  energy without entropy =    -1047.36997955  energy(sigma->0) =    -1047.36997955


--------------------------------------------------------------------------------------------------------




--------------------------------------- Iteration      1(   8)  ---------------------------------------


    POTLOK:  cpu time      0.0151: real time      0.0156
    SETDIJ:  cpu time      2.7319: real time      2.7334
     EDDAV:  cpu time      3.9882: real time      3.9910
 BZINTS: Fermi energy:   -0.936684;  216.000000 electrons
         Band energy:-0.352826E+04;  BLOECHL correction:   -0.029607
       DOS:  cpu time      0.0545: real time      0.0545
    CHARGE:  cpu time      0.3893: real time      0.3895
    MIXING:  cpu time      0.0071: real time      0.0071
    --------------------------------------------
      LOOP:  cpu time      7.1861: real time      7.1911

 eigenvalue-minimisations  :  9344
 total energy-change (2. order) :-0.1328751E+03  (-0.6461956E+03)
 number of electron     215.9999999 magnetization      -0.0109418
 augmentation part      -22.4649360 magnetization      -0.1190585

 Broyden mixing:
  rms(total) = 0.52011E+02    rms(broyden)= 0.52011E+02
  rms(prec ) = 0.53025E+02
  weight for this iteration     100.00

 eigenvalues of (default mixing * dielectric matrix)
  average eigenvalue GAMMA=   0.3841
  0.8165  0.1679  0.1679

 Free energy of the ion-electron system (eV)
  ---------------------------------------------------
  alpha Z        PSCENC =       639.59054450
  Ewald energy   TEWEN  =    -10758.98852080
  -Hartree energ DENC   =     -5407.38819610
  -exchange      EXHF   =         0.00000000
  -V(xc)+E(xc)   XCENC  =       491.67588068
  PAW double counting   =    316434.59087482  -316594.82459240
  entropy T*S    EENTRO =         0.00000000
  eigenvalues    EBANDS =     -3528.26474125
  atomic energy  EATOM  =     17543.36372049
  Solvation  Ediel_sol  =         0.00000000
  ---------------------------------------------------
  free energy    TOTEN  =     -1180.24503005 eV

  energy without entropy =    -1180.24503005  energy(sigma->0) =    -1180.24503005


--------------------------------------------------------------------------------------------------------




--------------------------------------- Iteration      1(   9)  ---------------------------------------


    POTLOK:  cpu time      0.0151: real time      0.0156
    SETDIJ:  cpu time      2.7475: real time      2.7495
     EDDAV:  cpu time      3.2792: real time      3.2820
 BZINTS: Fermi energy:  -11.919309;  216.000000 electrons
         Band energy:-0.457279E+04;  BLOECHL correction:   -0.009440
       DOS:  cpu time      0.0533: real time      0.0534
    CHARGE:  cpu time      0.3887: real time      0.3890
    MIXING:  cpu time      0.0071: real time      0.0071
    --------------------------------------------
      LOOP:  cpu time      6.4909: real time      6.4967

 eigenvalue-minimisations  :  7408
 total energy-change (2. order) :-0.2519730E+03  (-0.2366026E+03)
 number of electron     216.0000001 magnetization      -0.0484518
 augmentation part       29.6706090 magnetization      -0.0721502

 Broyden mixing:
  rms(total) = 0.37426E+02    rms(broyden)= 0.37426E+02
  rms(prec ) = 0.39062E+02
  weight for this iteration     100.00

 eigenvalues of (default mixing * dielectric matrix)
  average eigenvalue GAMMA=   0.5127
  0.8258  0.5205  0.5205  0.1839

 Free energy of the ion-electron system (eV)
  ---------------------------------------------------
  alpha Z        PSCENC =       639.59054450
  Ewald energy   TEWEN  =    -10758.98852080
  -Hartree energ DENC   =     -4785.33337025
  -exchange      EXHF   =         0.00000000
  -V(xc)+E(xc)   XCENC  =       474.04412357
  PAW double counting   =    311288.27192503  -311260.37983738
  entropy T*S    EENTRO =         0.00000000
  eigenvalues    EBANDS =     -4572.78658925
  atomic energy  EATOM  =     17543.36372049
  Solvation  Ediel_sol  =         0.00000000
  ---------------------------------------------------
  free energy    TOTEN  =     -1432.21800409 eV

  energy without entropy =    -1432.21800409  energy(sigma->0) =    -1432.21800409


--------------------------------------------------------------------------------------------------------




--------------------------------------- Iteration      1(  10)  ---------------------------------------


    POTLOK:  cpu time      0.0149: real time      0.0155
    SETDIJ:  cpu time      2.7547: real time      2.7567
     EDDAV:  cpu time      3.4411: real time      3.4442
 BZINTS: Fermi energy:  -10.051350;  216.000000 electrons
         Band energy:-0.495453E+04;  BLOECHL correction:    0.000000
       DOS:  cpu time      0.0289: real time      0.0290
    CHARGE:  cpu time      0.3881: real time      0.3885
    MIXING:  cpu time      0.0094: real time      0.0094
    --------------------------------------------
      LOOP:  cpu time      6.6371: real time      6.6433

 eigenvalue-minimisations  :  7840
 total energy-change (2. order) :-0.2113220E+03  (-0.7799400E+02)
 number of electron     216.0000001 magnetization      -0.0607124
 augmentation part       29.8367154 magnetization      -0.0483470

 Broyden mixing:
  rms(total) = 0.36908E+02    rms(broyden)= 0.36908E+02
  rms(prec ) = 0.38905E+02
  weight for this iteration     100.00

 eigenvalues of (default mixing * dielectric matrix)
  average eigenvalue GAMMA=   0.6054
  0.8382  0.8382  0.7853  0.3744  0.1908

 Free energy of the ion-electron system (eV)
  ---------------------------------------------------
  alpha Z        PSCENC =       639.59054450
  Ewald energy   TEWEN  =    -10758.98852080
  -Hartree energ DENC   =     -4657.46291842
  -exchange      EXHF   =         0.00000000
  -V(xc)+E(xc)   XCENC  =       471.19939532
  PAW double counting   =    267436.42064891  -267363.13271928
  entropy T*S    EENTRO =         0.00000000
  eigenvalues    EBANDS =     -4954.53010561
  atomic energy  EATOM  =     17543.36372049
  Solvation  Ediel_sol  =         0.00000000
  ---------------------------------------------------
  free energy    TOTEN  =     -1643.53995488 eV

  energy without entropy =    -1643.53995488  energy(sigma->0) =    -1643.53995488


--------------------------------------------------------------------------------------------------------




--------------------------------------- Iteration      1(  11)  ---------------------------------------


    POTLOK:  cpu time      0.0152: real time      0.0156
    SETDIJ:  cpu time      2.7560: real time      2.7579
     EDDAV:  cpu time      3.5027: real time      3.5049
 BZINTS: Fermi energy:  -10.884696;  216.000000 electrons
         Band energy:-0.502656E+04;  BLOECHL correction:    0.000000
       DOS:  cpu time      0.0295: real time      0.0295
    CHARGE:  cpu time      0.3885: real time      0.3888
    MIXING:  cpu time      0.0079: real time      0.0079
    --------------------------------------------
      LOOP:  cpu time      6.6998: real time      6.7046

 eigenvalue-minimisations  :  8072
 total energy-change (2. order) :-0.6910474E+02  (-0.3336928E+02)
 number of electron     216.0000001 magnetization      -0.0466091
 augmentation part       30.1283413 magnetization      -0.0338060

 Broyden mixing:
  rms(total) = 0.41428E+02    rms(broyden)= 0.41428E+02
  rms(prec ) = 0.43334E+02
  weight for this iteration     100.00

 eigenvalues of (default mixing * dielectric matrix)
  average eigenvalue GAMMA=   0.5162
  0.7468  0.7468  0.7493  0.4602  0.1937  0.2001

 Free energy of the ion-electron system (eV)
  ---------------------------------------------------
  alpha Z        PSCENC =       639.59054450
  Ewald energy   TEWEN  =    -10758.98852080
  -Hartree energ DENC   =     -4686.00362985
  -exchange      EXHF   =         0.00000000
  -V(xc)+E(xc)   XCENC  =       472.82177966
  PAW double counting   =    256326.75230575  -256223.61804407
  entropy T*S    EENTRO =         0.00000000
  eigenvalues    EBANDS =     -5026.56285373
  atomic energy  EATOM  =     17543.36372049
  Solvation  Ediel_sol  =         0.00000000
  ---------------------------------------------------
  free energy    TOTEN  =     -1712.64469804 eV

  energy without entropy =    -1712.64469804  energy(sigma->0) =    -1712.64469804


--------------------------------------------------------------------------------------------------------




--------------------------------------- Iteration      1(  12)  ---------------------------------------


    POTLOK:  cpu time      0.0147: real time      0.0155
    SETDIJ:  cpu time      2.7519: real time      2.7531
     EDDAV:  cpu time      3.6675: real time      3.6706
 BZINTS: Fermi energy:  -11.251944;  216.000000 electrons
         Band energy:-0.524245E+04;  BLOECHL correction:    0.000000
       DOS:  cpu time      0.0283: real time      0.0283
    CHARGE:  cpu time      0.4051: real time      0.4056
    MIXING:  cpu time      0.0084: real time      0.0084
    --------------------------------------------
      LOOP:  cpu time      6.8758: real time      6.8815

 eigenvalue-minimisations  :  8408
 total energy-change (2. order) :-0.9526023E+02  (-0.3514278E+01)
 number of electron     216.0000001 magnetization      -0.1179149
 augmentation part       30.3480792 magnetization      -0.1040730

 Broyden mixing:
  rms(total) = 0.42418E+02    rms(broyden)= 0.42418E+02
  rms(prec ) = 0.44306E+02
  weight for this iteration     100.00

 eigenvalues of (default mixing * dielectric matrix)
  average eigenvalue GAMMA=   0.5045
  0.7606  0.7606  0.7504  0.4796  0.1941  0.2932  0.2932

 Free energy of the ion-electron system (eV)
  ---------------------------------------------------
  alpha Z        PSCENC =       639.59054450
  Ewald energy   TEWEN  =    -10758.98852080
  -Hartree energ DENC   =     -4570.38036506
  -exchange      EXHF   =         0.00000000
  -V(xc)+E(xc)   XCENC  =       468.78873665
  PAW double counting   =    272371.52310790  -272259.35631786
  entropy T*S    EENTRO =         0.00000000
  eigenvalues    EBANDS =     -5242.44583626
  atomic energy  EATOM  =     17543.36372049
  Solvation  Ediel_sol  =         0.00000000
  ---------------------------------------------------
  free energy    TOTEN  =     -1807.90493044 eV

  energy without entropy =    -1807.90493044  energy(sigma->0) =    -1807.90493044


--------------------------------------------------------------------------------------------------------




--------------------------------------- Iteration      1(  13)  ---------------------------------------


    POTLOK:  cpu time      0.0156: real time      0.0160
    SETDIJ:  cpu time      2.8314: real time      2.8328
     EDDAV:  cpu time      3.7859: real time      3.7889
 BZINTS: Fermi energy:   -9.329354;  216.000000 electrons
         Band energy:-0.414685E+04;  BLOECHL correction:    0.000000
       DOS:  cpu time      0.0322: real time      0.0322
    CHARGE:  cpu time      0.3876: real time      0.3882
    MIXING:  cpu time      0.0103: real time      0.0103
    --------------------------------------------
      LOOP:  cpu time      7.0629: real time      7.0684

 eigenvalue-minimisations  :  8720
 total energy-change (2. order) : 0.4799271E+03  (-0.4236076E+02)
 number of electron     216.0000001 magnetization      -0.4080597
 augmentation part       27.6529045 magnetization      -0.3580295

 Broyden mixing:
  rms(total) = 0.36962E+02    rms(broyden)= 0.36962E+02
  rms(prec ) = 0.39062E+02
  weight for this iteration     100.00

 eigenvalues of (default mixing * dielectric matrix)
  average eigenvalue GAMMA=   0.8312
  1.6706  1.6706  0.6524  0.6524  0.7308  0.5394  0.5394  0.1944

 Free energy of the ion-electron system (eV)
  ---------------------------------------------------
  alpha Z        PSCENC =       639.59054450
  Ewald energy   TEWEN  =    -10758.98852080
  -Hartree energ DENC   =     -5089.64978680
  -exchange      EXHF   =         0.00000000
  -V(xc)+E(xc)   XCENC  =       489.41225727
  PAW double counting   =    187586.68940049  -187591.54876932
  entropy T*S    EENTRO =         0.00000000
  eigenvalues    EBANDS =     -4146.84668299
  atomic energy  EATOM  =     17543.36372049
  Solvation  Ediel_sol  =         0.00000000
  ---------------------------------------------------
  free energy    TOTEN  =     -1327.97783715 eV

  energy without entropy =    -1327.97783715  energy(sigma->0) =    -1327.97783715


--------------------------------------------------------------------------------------------------------




--------------------------------------- Iteration      1(  14)  ---------------------------------------


    POTLOK:  cpu time      0.0149: real time      0.0156
    SETDIJ:  cpu time      2.5877: real time      2.5891
     EDDAV:  cpu time      3.7030: real time      3.7054
 BZINTS: Fermi energy:    2.024022;  216.000000 electrons
         Band energy:-0.220046E+04;  BLOECHL correction:   -0.109109
       DOS:  cpu time      0.0567: real time      0.0567
    CHARGE:  cpu time      0.3884: real time      0.3887
    MIXING:  cpu time      0.0093: real time      0.0094
    --------------------------------------------
      LOOP:  cpu time      6.7601: real time      6.7649

 eigenvalue-minimisations  :  8592
 total energy-change (2. order) :-0.1698300E+04  (-0.2205629E+04)
 number of electron     215.9999999 magnetization      -0.4907589
 augmentation part      -22.0965800 magnetization      -0.8877255

 Broyden mixing:
  rms(total) = 0.39542E+02    rms(broyden)= 0.39542E+02
  rms(prec ) = 0.42010E+02
  weight for this iteration     100.00

 eigenvalues of (default mixing * dielectric matrix)
  average eigenvalue GAMMA=   0.8492
  1.7841  1.7841  0.7852  0.7852  0.6872  0.6872  0.1943  0.4678  0.4678

 Free energy of the ion-electron system (eV)
  ---------------------------------------------------
  alpha Z        PSCENC =       639.59054450
  Ewald energy   TEWEN  =    -10758.98852080
  -Hartree energ DENC   =     -8230.17145722
  -exchange      EXHF   =         0.00000000
  -V(xc)+E(xc)   XCENC  =       656.62773594
  PAW double counting   =     72789.89772838   -73466.13457899
  entropy T*S    EENTRO =         0.00000000
  eigenvalues    EBANDS =     -2200.46263709
  atomic energy  EATOM  =     17543.36372049
  Solvation  Ediel_sol  =         0.00000000
  ---------------------------------------------------
  free energy    TOTEN  =     -3026.27746478 eV

  energy without entropy =    -3026.27746478  energy(sigma->0) =    -3026.27746478


--------------------------------------------------------------------------------------------------------




--------------------------------------- Iteration      1(  15)  ---------------------------------------


    POTLOK:  cpu time      0.0148: real time      0.0155
    SETDIJ:  cpu time      2.4676: real time      2.4685
     EDDAV:  cpu time      4.2264: real time      4.2304
 BZINTS: Fermi energy:    3.377848;  216.000000 electrons
         Band energy:-0.169546E+04;  BLOECHL correction:   -0.075374
       DOS:  cpu time      0.0600: real time      0.0601
    CHARGE:  cpu time      0.3889: real time      0.3891
    MIXING:  cpu time      0.0084: real time      0.0084
    --------------------------------------------
      LOOP:  cpu time      7.1660: real time      7.1719

 eigenvalue-minimisations  :  9992
 total energy-change (2. order) :-0.2665227E+03  (-0.1622350E+03)
 number of electron     215.9999999 magnetization      -0.3955690
 augmentation part      -17.3666327 magnetization      -0.4839446

 Broyden mixing:
  rms(total) = 0.72363E+02    rms(broyden)= 0.72363E+02
  rms(prec ) = 0.74007E+02
  weight for this iteration     100.00

 eigenvalues of (default mixing * dielectric matrix)
  average eigenvalue GAMMA=   0.8200
  1.4175  1.4175  0.9627  0.9627  0.7899  0.7899  0.5665  0.5665  0.1943  0.5325

 Free energy of the ion-electron system (eV)
  ---------------------------------------------------
  alpha Z        PSCENC =       639.59054450
  Ewald energy   TEWEN  =    -10758.98852080
  -Hartree energ DENC   =     -9079.12814371
  -exchange      EXHF   =         0.00000000
  -V(xc)+E(xc)   XCENC  =       752.33489242
  PAW double counting   =    148872.14286910  -149566.65394868
  entropy T*S    EENTRO =         0.00000000
  eigenvalues    EBANDS =     -1695.46154705
  atomic energy  EATOM  =     17543.36372049
  Solvation  Ediel_sol  =         0.00000000
  ---------------------------------------------------
  free energy    TOTEN  =     -3292.80013373 eV

  energy without entropy =    -3292.80013373  energy(sigma->0) =    -3292.80013373


--------------------------------------------------------------------------------------------------------




--------------------------------------- Iteration      1(  16)  ---------------------------------------


    POTLOK:  cpu time      0.0149: real time      0.0159
    SETDIJ:  cpu time      2.4927: real time      2.4940
     EDDAV:  cpu time      3.9210: real time      3.9266
 BZINTS: Fermi energy:    4.677935;  216.000000 electrons
         Band energy:-0.150221E+04;  BLOECHL correction:   -0.068387
       DOS:  cpu time      0.0550: real time      0.0558
    CHARGE:  cpu time      0.3878: real time      0.3881
    MIXING:  cpu time      0.0098: real time      0.0098
    --------------------------------------------
      LOOP:  cpu time      6.8812: real time      6.8902

 eigenvalue-minimisations  :  9160
 total energy-change (2. order) : 0.1827069E+04  (-0.1183480E+03)
 number of electron     215.9999999 magnetization      -0.3837666
 augmentation part      -15.4898136 magnetization      -0.1339199

 Broyden mixing:
  rms(total) = 0.53143E+02    rms(broyden)= 0.53143E+02
  rms(prec ) = 0.54381E+02
  weight for this iteration     100.00

 eigenvalues of (default mixing * dielectric matrix)
  average eigenvalue GAMMA=   0.7829
  1.4245  1.4245  0.9512  0.9512  0.7242  0.7242  0.5829  0.5829  0.1943  0.5942
  0.4581

 Free energy of the ion-electron system (eV)
  ---------------------------------------------------
  alpha Z        PSCENC =       639.59054450
  Ewald energy   TEWEN  =    -10758.98852080
  -Hartree energ DENC   =     -7571.33910988
  -exchange      EXHF   =         0.00000000
  -V(xc)+E(xc)   XCENC  =       652.51142021
  PAW double counting   =     64092.32586351   -64560.98522639
  entropy T*S    EENTRO =         0.00000000
[...]
  288          m_sumb_d                              0.000109                          2   4
  289        strnlr                                1.557918                            1   3
  290          rspher_all                            0.172521                          9   4
  291          phaser                                0.360936                         81   4
  292          rpro_isp                              1.020688                         81   4
  293            fftwav_mpi                            0.207223                     6156   5
  294              fftwav                                0.199741                   6156   6
  295                fft3d                                 0.041254                 6156   7
  296            rpromu_acc                            0.433437                     1620   5
  297          m_sumb_d                              0.000016                          1   4
  298        fft3d_mpi                             0.004920                           22   3
  299          fftbrc_mpi                            0.003946                         22   4
  300            fftbas_plan_mpi                       0.003935                       22   5
  301              map_forward                           0.001538                     20   6
  302                map_gather                            0.000294                   10   7
  303                m_alltoallv_z                         0.000150                   10   7
  304                map_scatter                           0.000892                   10   7
  305              map_backward                          0.001766                     24   6
  306                map_gather                            0.000393                   12   7
  307                m_alltoallv_z                         0.000154                   12   7
  308                map_scatter                           0.000937                   12   7
  309        m_sumb_d                              0.000035                            5   3
  310        forhar                                0.005394                            2   3
  311          m_sumb_d                              0.000075                          2   4
  312        strehar                               0.003624                            1   3
  313          m_sumb_d                              0.000030                          1   4
  314        chggra                                0.001118                            1   3
  315          fft3d_mpi                             0.000728                          3   4
  316            fftbrc_mpi                            0.000588                        3   5
  317              fftbas_plan_mpi                       0.000586                      3   6
  318                map_forward                           0.000357                    4   7
  319                  map_gather                            0.000059                  2   8
  320                  m_alltoallv_z                         0.000032                  2   8
  321                  map_scatter                           0.000228                  2   8
  322                map_backward                          0.000138                    2   7
  323                  map_gather                            0.000033                  1   8
  324                  m_alltoallv_z                         0.000013                  1   8
  325                  map_scatter                           0.000070                  1   8
  326          m_sumb_d                              0.000008                          2   4
  327          pothar                                0.000095                          1   4
  328            m_sumb_d                              0.000008                        1   5
  329        brmix                                 0.019753                            1   3
  330          m_sumb_d                              0.000083                          6   4
  331          brpre                                 0.000064                          2   4
  332          setg0                                 0.002630                          1   4
  333          broyd                                 0.013791                          1   4
  334            m_sumb_d                              0.000190                       49   5
  335            brget                                 0.002995                      219   5
  336            brsav                                 0.000627                       47   5
  337        m_bcast_d                             0.000036                            2   3
  338      potlok                                0.090070                              2   2
  339        fft3d_mpi                             0.052776                           36   3
  340          fftbrc_mpi                            0.043699                         36   4
  341            fftbas_plan_mpi                       0.043683                       36   5
  342              map_forward                           0.011938                     40   6
  343                map_gather                            0.003305                   24   7
  344                m_alltoallv_z                         0.004869                   24   7
  345                map_scatter                           0.003505                   24   7
  346              map_backward                          0.010154                     32   6
  347                map_gather                            0.002699                   16   7
  348                m_alltoallv_z                         0.003908                   16   7
  349                map_scatter                           0.003256                   16   7
  350              dfftw_execute                         0.019584                     30   6
  351        m_sumb_d                              0.000027                            5   3
  352        pothar                                0.003657                            2   3
  353          m_sumb_d                              0.000298                          2   4
  354        m_bcast_d                             0.006360                            4   3
  355      potlok_metagga                        0.000000                              1   2
  356      set_dd_magatom                        0.000005                              1   2
  357      set_dd_paw                            2.360262                              1   2
  358        m_sumb_d                              0.000393                            7   3
  359      augmentation_charge                   0.269353                              1   2
  360        fft3d_mpi                             0.151409                            2   3
  361          fftbrc_mpi                            0.129532                          2   4
  362            fftbas_plan_mpi                       0.129528                        2   5
  363              dfftw_execute                         0.080051                      6   6
  364              map_backward                          0.049154                      4   6
  365                map_gather                            0.017339                    2   7
  366                m_alltoallv_z                         0.013295                    2   7
  367                map_scatter                           0.018506                    2   7
  368      fftwav_mpi                            5.218257                           2052   2
  369        fftwav                                5.215415                         2052   3
  370          fft3d                                 4.805751                       2052   4
  371      densta                                3.531124                              1   2
 
 Flat profile
 ============
 
             routine name                   CPU           calls
 ---------------------------------------------------------------
 set_dd_paw                            647.033741         275
 eddav                                 200.348717         277
 lapack                                173.787545      367955
 raccmu_                               170.922806      367955
 redis_pw                               87.919410     2028270
 m_sumb_d                               82.207230     1133410
 dfftw_execute                          51.567947        7044
 m_alltoall_d                           38.928799     5344258
 setdij_                                33.470486         301
 augmentation_charge                    32.229200         275
 eccp                                   23.072165      189468
 total_time                             22.879166           1
 phaser                                 21.907788        5103
 fft3d                                  21.879673     2163823
 orth1                                  18.209159     1103955
 redis_proj                             17.200369     2574730
 densta                                 15.006950         278
 hamiltmu                               14.764608      367955
 fftwav                                 14.125976     1427913
 fft3d_mpi                              13.404134      745407
 init_acc                               11.239783           1
 w1_copy                                10.758729     2207730
 racc0mu_acc                            10.703557      367955
 overl                                  10.650006     1282370
 map_scatter                            10.383795       10615
 map_gather                              9.886844       10615
 m_alltoallv_z                           9.496120       10615
 rpromu_acc                              8.558648      275561
 m_bcast_z                               8.375322      370691
 soft_charge                             8.219414         274
 setup_precond                           6.918393      189468
 set_charge                              6.506353         274
 ggemm                                   6.142840      462689
 m_bcast_d                               6.131010      736465
 pw_charge                               5.829125      134617
 overl_mu                                5.794086      367955
 vhamil                                  3.364869      735910
 kinhamil                                3.289494      735910
 fftext_mpi                              3.105972      735910
 depsum                                  3.064176         274
 newband                                 2.962715      372941
 apply_precond                           2.909726      546442
 broyd                                   2.567361         273
 acc_init_cublas                         2.443999           1
 potlok                                  2.325894         275
 fftwav_mpi                              1.982978     1427913
 brmix                                   1.127155         273
 brget                                   0.843545       60648
 acc_init_cusolver                       0.800710           1
 setg0                                   0.727599         275
 elmin                                   0.667565           1
 fftbas_plan_mpi                         0.556748        9497
 rpro_isp                                0.527380         117
 w1_projall                              0.268120      273221
 rspher_all                              0.256953          14
 brsav                                   0.235356       17364
 lincom                                  0.195549        5004
 sphpro_fast                             0.148485           2
 acc_cufft_makeplan                      0.112526          19
 proall                                  0.092048           1
 map_backward                            0.084829       10034
 truncate_high_frequency_w1              0.072897      925378
 map_forward                             0.072247        8960
 fft_gq                                  0.062763         274
 orthch                                  0.041622           1
 stufak                                  0.033772           1
 force_and_stress                        0.031639           1
 pothar                                  0.029721         276
 brpre                                   0.018981         546
 choleski                                0.009157          18
 fftbrc_mpi                              0.006387        9497
 strelo                                  0.006350           1
 forhar                                  0.005319           2
 inisym                                  0.004577           1
 strnlr                                  0.003757           1
 strehar                                 0.003594           1
 forloc                                  0.002741           1
 strkin                                  0.002343           1
 fornlr                                  0.001304           1
 rsp                                     0.001297           1
 set_dd_magatom                          0.001265         275
 vectorpot                               0.001106         274
 brgrid                                  0.000460           1
 fewald                                  0.000338           1
 chggra                                  0.000287           1
 fordep                                  0.000097           1
 rcp                                     0.000045           1
 posmap                                  0.000031           2
 crpa_reader                             0.000027           1
 potlok_metagga                          0.000020         274
 acc_cufft_makeplans                     0.000010           3
 rotate_active_occupied_orbital          0.000000           1
 redis_pw_over_bands                     0.000000           1
 ---------------------------------------------------------------
  summed up times     1871.535799980164     
 
 Accumulative profile
 ====================
 
             routine name                   CPU           calls
 ---------------------------------------------------------------
 total_time                           1871.535800           1
 elmin                                1806.194125           1
 eddav                                 959.743210         277
 set_dd_paw                            648.249791         275
 hamiltmu                              217.367713      367955
 raccmu_                               187.420449      367955
 lapack                                173.787545      367955
 redis_pw                              108.049957     2028270
 set_charge                            107.723809         274
 fft3d_mpi                             100.654695      745407
 setdij_                                83.024166         301
 m_sumb_d                               82.207230     1133410
 fftbrc_mpi                             82.054917        9497
 fftbas_plan_mpi                        82.048530        9497
 augmentation_charge                    74.088645         275
 dfftw_execute                          51.567947        7044
 newband                                48.111677      372941
 m_alltoall_d                           38.928799     5344258
 redis_proj                             35.998621     2574730
 fftwav_mpi                             32.792983     1427913
 fftwav                                 30.810005     1427913
 soft_charge                            23.163565         274
 eccp                                   23.072165      189468
 phaser                                 21.907788        5103
 fft3d                                  21.879673     2163823
 orth1                                  18.209159     1103955
 map_backward                           16.500674       10034
 densta                                 15.006950         278
 map_forward                            13.423161        8960
 force_and_stress                       12.041213           1
 kinhamil                               11.817788      735910
 init_acc                               11.239783           1
 w1_copy                                10.758729     2207730
 racc0mu_acc                            10.703557      367955
 overl                                  10.650006     1282370
 map_scatter                            10.383795       10615
 map_gather                              9.886844       10615
 m_alltoallv_z                           9.496120       10615
 rpromu_acc                              8.558648      275561
 fftext_mpi                              8.528294      735910
 m_bcast_z                               8.375322      370691
 w1_projall                              8.241107      273221
 setup_precond                           6.918393      189468
 ggemm                                   6.142840      462689
 m_bcast_d                               6.131010      736465
 pw_charge                               5.829125      134617
 overl_mu                                5.794086      367955
 brmix                                   5.599094         273
 potlok                                  4.305433         275
 broyd                                   3.702953         273
 vhamil                                  3.364869      735910
 depsum                                  3.153773         274
 apply_precond                           2.909726      546442
 acc_init_cublas                         2.443999           1
 fordep                                  1.644329           1
 strnlr                                  1.557918           1
 fft_gq                                  1.548284         274
 rpro_isp                                1.402453         117
 brget                                   0.843545       60648
 acc_init_cusolver                       0.800710           1
 setg0                                   0.727599         275
 fornlr                                  0.519178           1
 orthch                                  0.303343           1
 rspher_all                              0.256953          14
 brsav                                   0.235356       17364
 lincom                                  0.195549        5004
 proall                                  0.173339           1
 sphpro_fast                             0.154702           2
 acc_cufft_makeplans                     0.112536           3
 acc_cufft_makeplan                      0.112526          19
 truncate_high_frequency_w1              0.072897      925378
 stufak                                  0.033772           1
 pothar                                  0.032068         276
 brpre                                   0.018981         546
 choleski                                0.009157          18
 strelo                                  0.006459           1
 forhar                                  0.005394           2
 inisym                                  0.004608           1
 forloc                                  0.004144           1
 strehar                                 0.003624           1
 strkin                                  0.002357           1
 fewald                                  0.001770           1
 rsp                                     0.001297           1
 set_dd_magatom                          0.001265         275
 chggra                                  0.001118           1
 vectorpot                               0.001106         274
 brgrid                                  0.000460           1
 rcp                                     0.000045           1
 posmap                                  0.000031           2
 crpa_reader                             0.000027           1
 potlok_metagga                          0.000020         274
 rotate_active_occupied_orbital          0.000000           1
 redis_pw_over_bands                     0.000000           1
 ---------------------------------------------------------------
 
Profiling took   4.706491  2.288543  0.003241  0.003138 seconds
Profiling took   3.096063 seconds
