 vasp.6.3.2 27Jun22 (build Jul  3 2023 11:46:21) complex                         
 executed on    LinuxNV_CrayMPICH date 2024.04.21  23:48:01
 running on    4 total cores
 distrk:  each k-point on    4 cores,    1 groups
 distr:  one band on NCORE=   1 cores,    4 groups


--------------------------------------------------------------------------------------------------------


 INCAR:
   ADDGRID = True
   ALGO = Normal
   EDIFF = 0.0025
   ENCUT = 520.0
   IBRION = -1
   ICHARG = 0
   ISIF = 3
   ISMEAR = -5
   ISPIN = 2
   ISYM = 0
   LAECHG = True
   LASPH = True
   LCHARG = True
   LDAU = True
   LDAUJ = 0.0 0.0 0.0 0.0
   LDAUL = 0 0 2 0
   LDAUPRINT = 1
   LDAUTYPE = 2
   LDAUU = 0.0 0.0 4.38 0.0
   LMAXMIX = 6
   LORBIT = 11
   LREAL = Auto
   LVHAR = True
   LWAVE = False
   MAGMOM = 7*0.0 3*7.0 1*-0.002 1*-0.007 1*-0.002 1*-0.004 1*-0.002 1*0.0 2*-0.001 2*-0.002 1*0.0 1*-0.001 1*-0.004 1*-0.006 1*-0.003 1*-0.008 1*-0.003 1*-0.001 1*-0.014 1*-0.001 1*-0.004 1*-0.001 1*-0.008 1*-0.002 1*-0.005 1*-0.008 1*-0.002 1*-0.004 1*-0.006 1*0.0 1*-0.004 1*-0.003 1*-0.001 1*-0.002 2*-0.001 1*-0.002 1*-0.001 2*-0.002
   NELM = 1000
   NSW = 0
   PREC = Accurate
   SIGMA = 0.05

 POTCAR:    PAW_PBE Li_sv 10Sep2004               
 POTCAR:    PAW_PBE Eu 23Dec2003                  
 POTCAR:    PAW_PBE Mo_pv 04Feb2005               
 POTCAR:    PAW_PBE O 08Apr2002                   
 POTCAR:    PAW_PBE Li_sv 10Sep2004               
   SHA256 =  7e51fe1804c037e1dccc81a9c376d94d693a7559600c847f4b41960edb8ab895 Li_sv/POTCAR          
   COPYR  = (c) Copyright 10Sep2004 Georg Kresse                                                    
   COPYR  = This file is part of the software VASP. Any use, copying, and all other rights are regul
   COPYR  = If you do not have a valid VASP license, you may not use, copy or distribute this file. 
   VRHFIN =Li: 1s2s2p                                                                               
   LEXCH  = PE                                                                                      
   EATOM  =   202.7858 eV,   14.9043 Ry                                                             
                                                                                                    
   TITEL  = PAW_PBE Li_sv 10Sep2004                                                                 
   LULTRA =        F    use ultrasoft PP ?                                                          
   IUNSCR =        0    unscreen: 0-lin 1-nonlin 2-no                                               
   RPACOR =    0.000    partial core radius                                                         
   POMASS =    7.010; ZVAL   =    3.000    mass and valenz                                          
   RCORE  =    1.700    outmost cutoff radius                                                       
   RWIGS  =    2.050; RWIGS  =    1.085    wigner-seitz radius (au A)                               
   ENMAX  =  499.034; ENMIN  =  374.276 eV                                                          
   ICORE  =        2    local potential                                                             
   LCOR   =        T    correct aug charges                                                         
   LPAW   =        T    paw PP                                                                      
   EAUG   =  628.945                                                                                
   RMAX   =    1.732    core radius for proj-oper                                                   
   RAUG   =    1.300    factor for augmentation sphere                                              
   RDEP   =    1.728    radius for radial grids                                                     
   RDEPT  =    1.329    core radius for aug-charge                                                  
                                                                                                    
   Atomic configuration                                                                             
    4 entries                                                                                       
     n  l   j            E        occ.                                                              
     1  0  0.50       -51.8549   2.0000                                                             
     2  0  0.50        -2.8742   1.0000                                                             
     2  1  0.50        -1.3606   0.0000                                                             
     3  2  1.50        -1.3606   0.0000                                                             
   Description                                                                                      
     l       E           TYP  RCUT    TYP  RCUT                                                     
     0    -51.8548813     23  1.400                                                                 
     0     -2.8742052     23  1.700                                                                 
     1     -1.3605826     23  1.400                                                                 
     2     -1.3605826     23  1.400                                                                 
  local pseudopotential read in
  atomic valenz-charges read in
  non local Contribution for L=            0  read in
    real space projection operators read in
  non local Contribution for L=            0  read in
    real space projection operators read in
  non local Contribution for L=            1  read in
    real space projection operators read in
    PAW grid and wavefunctions read in
 
   number of l-projection  operators is LMAX  =            3
   number of lm-projection operators is LMMAX =            5
 
 POTCAR:    PAW_PBE Eu 23Dec2003                  
   SHA256 =  ed303d27e7c5191953f9b15539336e6f36d9037c1d2e92e80c13d733697cb93d Eu/POTCAR             
   COPYR  = (c) Copyright 23Dec2003 Georg Kresse                                                    
   COPYR  = This file is part of the software VASP. Any use, copying, and all other rights are regul
   COPYR  = If you do not have a valid VASP license, you may not use, copy or distribute this file. 
   VRHFIN =Eu : [core=Kr4d]                                                                         
   LEXCH  = PE                                                                                      
   EATOM  =  2619.8085 eV,  192.5505 Ry                                                             
                                                                                                    
   TITEL  = PAW_PBE Eu 23Dec2003                                                                    
   LULTRA =        F    use ultrasoft PP ?                                                          
   IUNSCR =        1    unscreen: 0-lin 1-nonlin 2-no                                               
   RPACOR =    2.300    partial core radius                                                         
   POMASS =  151.965; ZVAL   =   17.000    mass and valenz                                          
   RCORE  =    2.800    outmost cutoff radius                                                       
   RWIGS  =    2.800; RWIGS  =    1.482    wigner-seitz radius (au A)                               
   ENMAX  =  249.668; ENMIN  =  187.251 eV                                                          
   RCLOC  =    2.308    cutoff for local pot                                                        
   LCOR   =        T    correct aug charges                                                         
   LPAW   =        T    paw PP                                                                      
   EAUG   =  549.628                                                                                
   DEXC   =    0.000                                                                                
   RMAX   =    2.870    core radius for proj-oper                                                   
   RAUG   =    1.300    factor for augmentation sphere                                              
   RDEP   =    2.887    radius for radial grids                                                     
   RDEPT  =    2.221    core radius for aug-charge                                                  
                                                                                                    
   Atomic configuration                                                                             
   14 entries                                                                                       
     n  l   j            E        occ.                                                              
     1  0  0.50    -48354.7667   2.0000                                                             
     2  0  0.50     -7939.6472   2.0000                                                             
     2  1  1.50     -7072.6637   6.0000                                                             
     3  0  0.50     -1747.1875   2.0000                                                             
     3  1  1.50     -1477.5221   6.0000                                                             
     3  2  2.50     -1117.4686  10.0000                                                             
     4  0  0.50      -346.8682   2.0000                                                             
     4  1  1.50      -258.1962   6.0000                                                             
     4  2  2.50      -134.7724  10.0000                                                             
     5  0  0.50       -44.6510   2.0000                                                             
     6  0  0.50        -3.6227   2.0000                                                             
     5  1  1.50       -23.7639   6.0000                                                             
     5  2  2.50        -1.3130   0.0000                                                             
     4  3  2.50        -2.7310   7.0000                                                             
   Description                                                                                      
     l       E           TYP  RCUT    TYP  RCUT                                                     
     0    -44.6510453     23  2.400                                                                 
     0     -3.6226685     23  2.400                                                                 
     1    -23.7638687     23  2.400                                                                 
     1     27.2116520     23  2.400                                                                 
     2     -1.3129622     23  2.500                                                                 
     2     13.6058260     23  2.500                                                                 
     3     -2.7309948     23  2.800                                                                 
     3     -3.4014565     23  2.800                                                                 
  local pseudopotential read in
  partial core-charges read in
  partial kinetic energy density read in
  atomic valenz-charges read in
  non local Contribution for L=            0  read in
    real space projection operators read in
  non local Contribution for L=            0  read in
    real space projection operators read in
  non local Contribution for L=            1  read in
    real space projection operators read in
  non local Contribution for L=            1  read in
    real space projection operators read in
  non local Contribution for L=            2  read in
    real space projection operators read in
  non local Contribution for L=            2  read in
    real space projection operators read in
  non local Contribution for L=            3  read in
    real space projection operators read in
  non local Contribution for L=            3  read in
    real space projection operators read in
    PAW grid and wavefunctions read in
 
   number of l-projection  operators is LMAX  =            8
   number of lm-projection operators is LMMAX =           32
 
 POTCAR:    PAW_PBE Mo_pv 04Feb2005               
   SHA256 =  6ae1433eb25a8c9ce9b558610a2d5a3c8775e861c8272ad13d852ff7f9633ae0 Mo_pv/POTCAR          
   COPYR  = (c) Copyright 04Feb2005 Georg Kresse                                                    
   COPYR  = This file is part of the software VASP. Any use, copying, and all other rights are regul
   COPYR  = If you do not have a valid VASP license, you may not use, copy or distribute this file. 
   VRHFIN =Mo: 4p5s4d                                                                               
   LEXCH  = PE                                                                                      
   EATOM  =  1284.3008 eV,   94.3934 Ry                                                             
                                                                                                    
   TITEL  = PAW_PBE Mo_pv 04Feb2005                                                                 
   LULTRA =        F    use ultrasoft PP ?                                                          
   IUNSCR =        1    unscreen: 0-lin 1-nonlin 2-no                                               
   RPACOR =    2.200    partial core radius                                                         
   POMASS =   95.940; ZVAL   =   12.000    mass and valenz                                          
   RCORE  =    2.700    outmost cutoff radius                                                       
   RWIGS  =    2.750; RWIGS  =    1.455    wigner-seitz radius (au A)                               
   ENMAX  =  224.584; ENMIN  =  168.438 eV                                                          
   ICORE  =        3    local potential                                                             
   LCOR   =        T    correct aug charges                                                         
   LPAW   =        T    paw PP                                                                      
   EAUG   =  392.427                                                                                
   DEXC   =    0.000                                                                                
   RMAX   =    2.754    core radius for proj-oper                                                   
   RAUG   =    1.300    factor for augmentation sphere                                              
   RDEP   =    2.815    radius for radial grids                                                     
   RDEPT  =    2.166    core radius for aug-charge                                                  
                                                                                                    
   Atomic configuration                                                                             
   11 entries                                                                                       
     n  l   j            E        occ.                                                              
     1  0  0.50    -19819.0341   2.0000                                                             
     2  0  0.50     -2799.0127   2.0000                                                             
     2  1  1.50     -2502.0276   6.0000                                                             
     3  0  0.50      -476.4449   2.0000                                                             
     3  1  1.50      -379.1496   6.0000                                                             
     3  2  2.50      -220.9367  10.0000                                                             
     4  0  0.50       -64.3378   2.0000                                                             
     4  1  1.50       -38.4773   6.0000                                                             
     4  2  2.50        -3.7535   5.0000                                                             
     5  0  0.50        -4.0862   1.0000                                                             
     4  3  2.50        -1.3606   0.0000                                                             
   Description                                                                                      
     l       E           TYP  RCUT    TYP  RCUT                                                     
     1    -38.4772993     23  2.500                                                                 
     1     -2.7211652     23  2.500                                                                 
     2     -3.7534941     23  2.500                                                                 
     2     -5.1140767     23  2.500                                                                 
     0     -4.0861640     23  2.700                                                                 
     0     27.2116520     23  2.700                                                                 
     3     -4.0817478     23  2.600                                                                 
  local pseudopotential read in
  partial core-charges read in
  partial kinetic energy density read in
  atomic valenz-charges read in
  non local Contribution for L=            1  read in
    real space projection operators read in
  non local Contribution for L=            1  read in
    real space projection operators read in
  non local Contribution for L=            2  read in
    real space projection operators read in
  non local Contribution for L=            2  read in
    real space projection operators read in
  non local Contribution for L=            0  read in
    real space projection operators read in
  non local Contribution for L=            0  read in
    real space projection operators read in
    PAW grid and wavefunctions read in
 
   number of l-projection  operators is LMAX  =            6
   number of lm-projection operators is LMMAX =           18
 
 POTCAR:    PAW_PBE O 08Apr2002                   
   SHA256 =  818f92134a0a090dccd8ba1447fa70422a3b330e708bb4f08108d8ae51209ddf O/POTCAR              
   COPYR  = (c) Copyright 08Apr2002 Georg Kresse                                                    
   COPYR  = This file is part of the software VASP. Any use, copying, and all other rights are regul
   COPYR  = If you do not have a valid VASP license, you may not use, copy or distribute this file. 
   VRHFIN =O: s2p4                                                                                  
   LEXCH  = PE                                                                                      
   EATOM  =   432.3788 eV,   31.7789 Ry                                                             
                                                                                                    
   TITEL  = PAW_PBE O 08Apr2002                                                                     
   LULTRA =        F    use ultrasoft PP ?                                                          
   IUNSCR =        1    unscreen: 0-lin 1-nonlin 2-no                                               
   RPACOR =    1.200    partial core radius                                                         
   POMASS =   16.000; ZVAL   =    6.000    mass and valenz                                          
   RCORE  =    1.520    outmost cutoff radius                                                       
   RWIGS  =    1.550; RWIGS  =    0.820    wigner-seitz radius (au A)                               
   ENMAX  =  400.000; ENMIN  =  300.000 eV                                                          
   ICORE  =        2    local potential                                                             
   LCOR   =        T    correct aug charges                                                         
   LPAW   =        T    paw PP                                                                      
   EAUG   =  605.392                                                                                
   DEXC   =    0.000                                                                                
   RMAX   =    1.553    core radius for proj-oper                                                   
   RAUG   =    1.300    factor for augmentation sphere                                              
   RDEP   =    1.550    radius for radial grids                                                     
   RDEPT  =    1.329    core radius for aug-charge                                                  
                                                                                                    
   Atomic configuration                                                                             
    4 entries                                                                                       
     n  l   j            E        occ.                                                              
     1  0  0.50      -514.6923   2.0000                                                             
     2  0  0.50       -23.9615   2.0000                                                             
     2  1  0.50        -9.0305   4.0000                                                             
     3  2  1.50        -9.5241   0.0000                                                             
   Description                                                                                      
     l       E           TYP  RCUT    TYP  RCUT                                                     
     0    -23.9615318     23  1.200                                                                 
     0     -9.5240782     23  1.200                                                                 
     1     -9.0304911     23  1.520                                                                 
     1      8.1634956     23  1.520                                                                 
     2     -9.5240782      7  1.500                                                                 
  local pseudopotential read in
  partial core-charges read in
  partial kinetic energy density read in
  kinetic energy density of atom read in
  atomic valenz-charges read in
  non local Contribution for L=            0  read in
    real space projection operators read in
  non local Contribution for L=            0  read in
    real space projection operators read in
  non local Contribution for L=            1  read in
    real space projection operators read in
  non local Contribution for L=            1  read in
    real space projection operators read in
    PAW grid and wavefunctions read in
 
   number of l-projection  operators is LMAX  =            4
   number of lm-projection operators is LMMAX =            8
 
 Optimization of the real space projectors (new method)

 maximal supplied QI-value         = 22.11
 optimisation between [QCUT,QGAM] = [ 11.50, 23.22] = [ 37.02,150.92] Ry 
 Optimized for a Real-space Cutoff    1.08 Angstroem

   l    n(q)    QCUT    max X(q) W(low)/X(q) W(high)/X(q)  e(spline) 
   0      7    11.497    10.506    0.36E-04    0.62E-04    0.14E-07
   0      7    11.497     8.367    0.65E-04    0.14E-03    0.28E-07
   1      7    11.497     8.983    0.21E-03    0.43E-03    0.90E-07
 Optimization of the real space projectors (new method)

 maximal supplied QI-value         = 13.42
 optimisation between [QCUT,QGAM] = [ 11.67, 23.35] = [ 38.16,152.62] Ry 
 Optimized for a Real-space Cutoff    1.63 Angstroem

   l    n(q)    QCUT    max X(q) W(low)/X(q) W(high)/X(q)  e(spline) 
   0     11    11.673    10.400    0.14E-04    0.18E-05    0.24E-07
   0     11    11.673    10.768    0.21E-04    0.32E-05    0.49E-07
   1     11    11.673     4.094    0.40E-05    0.13E-04    0.93E-07
   1     11    11.673     4.009    0.11E-04    0.46E-04    0.33E-06
   2     10    11.673    29.030    0.79E-04    0.60E-04    0.70E-06
   2     10    11.673    19.941    0.80E-04    0.60E-04    0.71E-06
   3     10    11.673    88.889    0.23E-03    0.29E-03    0.30E-06
   3     10    11.673    76.102    0.23E-03    0.30E-03    0.30E-06
 Optimization of the real space projectors (new method)

 maximal supplied QI-value         = 13.98
 optimisation between [QCUT,QGAM] = [ 11.61, 23.35] = [ 37.72,152.72] Ry 
 Optimized for a Real-space Cutoff    1.68 Angstroem

   l    n(q)    QCUT    max X(q) W(low)/X(q) W(high)/X(q)  e(spline) 
   1     11    11.607     4.274    0.94E-05    0.70E-04    0.79E-06
   1     11    11.607     7.035    0.16E-04    0.12E-03    0.14E-05
   2     11    11.607    64.474    0.17E-03    0.12E-03    0.48E-06
   2     11    11.607    61.199    0.17E-03    0.12E-03    0.48E-06
   0     12    11.607    31.789    0.39E-04    0.85E-05    0.14E-06
   0     12    11.607    13.589    0.21E-04    0.62E-05    0.11E-06
 Optimization of the real space projectors (new method)

 maximal supplied QI-value         = 24.76
 optimisation between [QCUT,QGAM] = [ 11.64, 23.27] = [ 37.91,151.63] Ry 
 Optimized for a Real-space Cutoff    1.14 Angstroem

   l    n(q)    QCUT    max X(q) W(low)/X(q) W(high)/X(q)  e(spline) 
   0      8    11.635    20.381    0.10E-03    0.33E-03    0.24E-06
   0      8    11.635    15.268    0.11E-03    0.35E-03    0.26E-06
   1      7    11.635     5.964    0.24E-03    0.31E-03    0.30E-06
   1      7    11.635     5.382    0.22E-03    0.25E-03    0.26E-06
  PAW_PBE Li_sv 10Sep2004               :
 energy of atom  1       EATOM= -202.7858
 kinetic energy error for atom=    0.0130 (will be added to EATOM!!)
  PAW_PBE Eu 23Dec2003                  :
 energy of atom  2       EATOM=-2619.8085
 kinetic energy error for atom=    0.0015 (will be added to EATOM!!)
  PAW_PBE Mo_pv 04Feb2005               :
 energy of atom  3       EATOM=-1284.3008
 kinetic energy error for atom=    0.0019 (will be added to EATOM!!)
  PAW_PBE O 08Apr2002                   :
 energy of atom  4       EATOM= -432.3788
 kinetic energy error for atom=    0.0208 (will be added to EATOM!!)
 
 
 POSCAR: Li7 Eu3 Mo8 O32
  positions in direct lattice
  No initial velocities read in
 exchange correlation table for  LEXCH =        8
   RHO(1)=    0.500       N(1)  =     2000
   RHO(2)=  100.500       N(2)  =     4000

 VTST: version 4.2, (08/11/21)

 CHAIN: initializing optimizer
 
 OPT: Using VASP Dynamics algorithm
 CHAIN: Read ICHAIN             0
 
 POSCAR: Li7 Eu3 Mo8 O32
  positions in direct lattice
  No initial velocities read in
 


--------------------------------------------------------------------------------------------------------


 ion  position               nearest neighbor table
   1  0.197  0.397  0.130-  20 1.98  27 2.10  39 2.13
   2  0.698  0.898  0.130-  19 1.98  28 2.10  40 2.12
   3  0.303  0.102  0.870-  22 1.98  29 2.10  41 2.12
   4  0.804  0.604  0.867-  21 2.01  30 2.08  42 2.11
   5  0.250  0.750  0.999-  43 2.00  45 2.01  49 2.06  47 2.08
   6  0.750  0.250  1.000-  46 2.01  44 2.01  50 2.07  48 2.07
   7  0.978  0.795  0.562-
   8  0.476  0.295  0.562-  41 2.40  36 2.41  29 2.44  23 2.44  26 2.45  31 2.48  38 2.49  33 2.50

   9  0.521  0.706  0.442-  37 2.41  40 2.41  26 2.44  34 2.45  35 2.45  23 2.46  28 2.49  32 2.52

  10  0.024  0.200  0.440-  25 2.41  24 2.42  27 2.43  38 2.44  39 2.46  36 2.46  33 2.51  31 2.52

  11  0.091  0.609  0.320-  47 1.77  32 1.79  39 1.81  23 1.86
  12  0.595  0.106  0.319-  48 1.77  40 1.80  24 1.81  31 1.84
  13  0.407  0.892  0.681-  49 1.77  34 1.80  41 1.82  25 1.82
  14  0.908  0.393  0.682-  42 1.77  50 1.77  33 1.84  26 1.86
  15  0.364  0.482  0.801-  20 1.77  44 1.79  29 1.83  35 1.83
  16  0.866  0.978  0.801-  19 1.77  30 1.78  43 1.79  36 1.88
  17  0.134  0.019  0.199-  22 1.77  46 1.79  37 1.83  27 1.83
  18  0.634  0.520  0.198-  21 1.76  45 1.78  28 1.81  38 1.86
  19  0.695  0.993  0.931-  16 1.77   2 1.98
  20  0.194  0.494  0.932-  15 1.77   1 1.98
  21  0.805  0.507  0.068-  18 1.76   4 2.01
  22  0.305  0.007  0.068-  17 1.77   3 1.98
  23  0.336  0.549  0.405-  11 1.86   8 2.44   9 2.46
  24  0.833  0.051  0.403-  12 1.81  10 2.42
  25  0.167  0.952  0.597-  13 1.82  10 2.41
  26  0.665  0.451  0.595-  14 1.86   9 2.44   8 2.45
  27  0.142  0.185  0.226-  17 1.83   1 2.10  10 2.43
  28  0.642  0.685  0.225-  18 1.81   2 2.10   9 2.49
  29  0.358  0.316  0.774-  15 1.83   3 2.10   8 2.44
  30  0.857  0.816  0.777-  16 1.78   4 2.08
  31  0.399  0.166  0.427-  12 1.84   8 2.48  10 2.52
  32  0.898  0.664  0.426-  11 1.79   9 2.52
  33  0.103  0.334  0.573-  14 1.84   8 2.50  10 2.51
  34  0.598  0.835  0.572-  13 1.80   9 2.45
  35  0.311  0.647  0.644-  15 1.83   9 2.45
  36  0.808  0.150  0.641-  16 1.88   8 2.41  10 2.46
  37  0.193  0.853  0.354-  17 1.83   9 2.41
  38  0.691  0.352  0.357-  18 1.86  10 2.44   8 2.49
  39  0.052  0.453  0.292-  11 1.81   1 2.13  10 2.46
  40  0.552  0.952  0.291-  12 1.80   2 2.12   9 2.41
  41  0.448  0.048  0.708-  13 1.82   3 2.12   8 2.40
  42  0.948  0.546  0.708-  14 1.77   4 2.11
  43  0.111  0.946  0.863-  16 1.79   5 2.00
  44  0.611  0.447  0.862-  15 1.79   6 2.01
  45  0.390  0.553  0.137-  18 1.78   5 2.01
  46  0.889  0.053  0.138-  17 1.79   6 2.01
  47  0.065  0.760  0.161-  11 1.77   5 2.08
  48  0.567  0.259  0.162-  12 1.77   6 2.07
  49  0.434  0.740  0.839-  13 1.77   5 2.06
  50  0.935  0.241  0.839-  14 1.77   6 2.07
 

IMPORTANT INFORMATION: All symmetrisations will be switched off!
NOSYMM: (Re-)initialisation of all symmetry stuff for point group C_1.


----------------------------------------------------------------------------------------

                                     Primitive cell                                     

  volume of cell :     670.9103

  direct lattice vectors                    reciprocal lattice vectors
     6.917697000  0.000000000  0.000000000     0.144556780 -0.039387563 -0.000300733
     2.655028000  9.744251000  0.000000000     0.000000000  0.102624614 -0.043291630
     1.164710000  4.198623000  9.953011000     0.000000000  0.000000000  0.100472108

  length of vectors
     6.917697000 10.099485196 10.864962607     0.149827010  0.111382120  0.100472108

  position of ions in fractional coordinates (direct lattice)
     0.197318000  0.397471000  0.130197000
     0.697756000  0.898061000  0.129936000
     0.302575000  0.102099000  0.869904000
     0.803962000  0.604334000  0.867029000
     0.249844000  0.750218000  0.999326000
     0.750039000  0.249988000  0.999966000
     0.978055000  0.795025000  0.562124000
     0.475830000  0.294999000  0.561524000
     0.521163000  0.706435000  0.441998000
     0.024441000  0.200221000  0.440353000
     0.090714000  0.609001000  0.319768000
     0.594534000  0.106339000  0.319174000
     0.407397000  0.891684000  0.681006000
     0.908301000  0.393329000  0.681831000
     0.364145000  0.481863000  0.801258000
     0.865599000  0.978440000  0.801178000
     0.134471000  0.018856000  0.198707000
     0.634315000  0.520117000  0.197780000
     0.695326000  0.992877000  0.931470000
     0.193569000  0.493745000  0.931854000
     0.805158000  0.506917000  0.068243000
     0.305327000  0.006699000  0.068225000
     0.336220000  0.548587000  0.404841000
     0.832575000  0.050698000  0.403051000
     0.166855000  0.951762000  0.596533000
     0.665207000  0.451240000  0.594934000
     0.141832000  0.184851000  0.226050000
     0.641668000  0.684774000  0.224703000
     0.357985000  0.315520000  0.774084000
     0.856704000  0.815864000  0.777011000
     0.398823000  0.165909000  0.427454000
     0.897684000  0.663555000  0.425994000
     0.102794000  0.334233000  0.572565000
     0.597508000  0.835319000  0.572441000
     0.310999000  0.646717000  0.644126000
     0.808423000  0.149625000  0.641143000
     0.193027000  0.852718000  0.353948000
     0.690869000  0.352223000  0.357400000
     0.052230000  0.452738000  0.292015000
     0.551873000  0.951980000  0.291203000
     0.448403000  0.048445000  0.708340000
     0.948378000  0.546108000  0.707831000
     0.110745000  0.946268000  0.863015000
     0.610552000  0.446720000  0.862214000
     0.389944000  0.553389000  0.136957000
     0.888669000  0.052932000  0.137604000
     0.064775000  0.759609000  0.161283000
     0.566978000  0.259034000  0.161852000
     0.433751000  0.739874000  0.839413000
     0.934687000  0.240591000  0.839143000

  ion indices of the primitive-cell ions
   primitive index   ion index
                 1           1
                 2           2
                 3           3
                 4           4
                 5           5
                 6           6
                 7           7
                 8           8
                 9           9
                10          10
                11          11
                12          12
                13          13
                14          14
                15          15
                16          16
                17          17
                18          18
                19          19
                20          20
                21          21
                22          22
                23          23
                24          24
                25          25
                26          26
                27          27
                28          28
                29          29
                30          30
                31          31
                32          32
                33          33
                34          34
                35          35
                36          36
                37          37
                38          38
                39          39
                40          40
                41          41
                42          42
                43          43
                44          44
                45          45
                46          46
                47          47
                48          48
                49          49
                50          50

----------------------------------------------------------------------------------------

 
 
 KPOINTS: Kpoints from vasprun.xml                

Automatic generation of k-mesh.
 Grid dimensions read from file:
 generate k-points for:    4    3    2

 Generating k-lattice:

  Cartesian coordinates                     Fractional coordinates (reciprocal lattice)
     0.036139195 -0.009846891 -0.000075183     0.250000000  0.000000000  0.000000000
     0.000000000  0.034208205 -0.014430543     0.000000000  0.333333333 -0.000000000
     0.000000000  0.000000000  0.050236054     0.000000000  0.000000000  0.500000000

  Length of vectors
     0.037456753  0.037127373  0.050236054

  Shift w.r.t. Gamma in fractional coordinates (k-lattice)
     0.000000000  0.000000000  0.000000000

 TETIRR: Found     72 inequivalent tetrahedra from      144
 
 Subroutine IBZKPT returns following result:
 ===========================================
 
 Found     14 irreducible k-points:
 
 Following reciprocal coordinates:
            Coordinates               Weight
  0.000000  0.000000  0.000000      1.000000
  0.250000  0.000000  0.000000      2.000000
  0.500000  0.000000  0.000000      1.000000
  0.000000  0.333333  0.000000      2.000000
  0.250000  0.333333  0.000000      2.000000
  0.500000  0.333333  0.000000      2.000000
 -0.250000  0.333333  0.000000      2.000000
  0.000000  0.000000  0.500000      1.000000
  0.250000  0.000000  0.500000      2.000000
  0.500000  0.000000  0.500000      1.000000
  0.000000  0.333333  0.500000      2.000000
  0.250000  0.333333  0.500000      2.000000
  0.500000  0.333333  0.500000      2.000000
 -0.250000  0.333333  0.500000      2.000000
 
 Following cartesian coordinates:
            Coordinates               Weight
  0.000000  0.000000  0.000000      1.000000
  0.036139 -0.009847 -0.000075      2.000000
  0.072278 -0.019694 -0.000150      1.000000
  0.000000  0.034208 -0.014431      2.000000
  0.036139  0.024361 -0.014506      2.000000
  0.072278  0.014514 -0.014581      2.000000
 -0.036139  0.044055 -0.014355      2.000000
  0.000000  0.000000  0.050236      1.000000
  0.036139 -0.009847  0.050161      2.000000
  0.072278 -0.019694  0.050086      1.000000
  0.000000  0.034208  0.035806      2.000000
  0.036139  0.024361  0.035730      2.000000
  0.072278  0.014514  0.035655      2.000000
 -0.036139  0.044055  0.035881      2.000000
 


--------------------------------------------------------------------------------------------------------




 Dimension of arrays:
   k-points           NKPTS =     14   k-points in BZ     NKDIM =     14   number of bands    NBANDS=    228
   number of dos      NEDOS =    301   number of ions     NIONS =     50
   non local maximal  LDIM  =      8   non local SUM 2l+1 LMDIM =     32
   total plane-waves  NPLWV = 362880
   max r-space proj   IRMAX =  10716   max aug-charges    IRDMAX= 247538
   dimension x,y,z NGX =    54 NGY =   80 NGZ =   84
   dimension x,y,z NGXF=   108 NGYF=  160 NGZF=  168
   support grid    NGXF=   216 NGYF=  320 NGZF=  336
   ions per type =               7   3   8  32
   NGX,Y,Z   is equivalent  to a cutoff of  12.98, 13.17, 12.85 a.u.
   NGXF,Y,Z  is equivalent  to a cutoff of  25.95, 26.34, 25.71 a.u.

 SYSTEM =  unknown system                          
 POSCAR =  Li7 Eu3 Mo8 O32                         

 Startparameter for this run:
   NWRITE =      2    write-flag & timer
   PREC   = accura    normal or accurate (medium, high low for compatibility)
   ISTART =      0    job   : 0-new  1-cont  2-samecut
   ICHARG =      0    charge: 1-file 2-atom 10-const
   ISPIN  =      2    spin polarized calculation?
   LNONCOLLINEAR =      F non collinear calculations
   LSORBIT =      F    spin-orbit coupling
   INIWAV =      1    electr: 0-lowe 1-rand  2-diag
   LASPH  =      T    aspherical Exc in radial PAW
 Electronic Relaxation 1
   ENCUT  =  520.0 eV  38.22 Ry    6.18 a.u.  12.86 18.78 20.20*2*pi/ulx,y,z
   ENINI  =  520.0     initial cutoff
   ENAUG  =  628.9 eV  augmentation charge cutoff
   NELM   =   1000;   NELMIN=  2; NELMDL= -5     # of ELM steps 
   EDIFF  = 0.3E-02   stopping-criterion for ELM
   LREAL  =      T    real-space projection
   NLSPLINE    = F    spline interpolate recip. space projectors
   LCOMPAT=      F    compatible to vasp.4.4
   GGA_COMPAT  = T    GGA compatible to vasp.4.4-vasp.4.6
   LMAXPAW     = -100 max onsite density
   LMAXMIX     =    6 max onsite mixed and CHGCAR
   VOSKOWN=      0    Vosko Wilk Nusair interpolation
   ROPT   =   -0.00025  -0.00025  -0.00025  -0.00025
 Ionic relaxation
   EDIFFG = 0.3E-01   stopping-criterion for IOM
   NSW    =      0    number of steps for IOM
   NBLOCK =      1;   KBLOCK =      1    inner block; outer block 
   IBRION =     -1    ionic relax: 0-MD 1-quasi-New 2-CG
   NFREE  =      0    steps in history (QN), initial steepest desc. (CG)
   ISIF   =      3    stress and relaxation
   IWAVPR =     10    prediction:  0-non 1-charg 2-wave 3-comb
   ISYM   =      0    0-nonsym 1-usesym 2-fastsym
   LCORR  =      T    Harris-Foulkes like correction to forces

   POTIM  = 0.5000    time-step for ionic-motion
   TEIN   =    0.0    initial temperature
   TEBEG  =    0.0;   TEEND  =   0.0 temperature during run
   SMASS  =  -3.00    Nose mass-parameter (am)
   estimated Nose-frequenzy (Omega)   =  0.10E-29 period in steps = 0.13E+47 mass=  -0.109E-26a.u.
   SCALEE = 1.0000    scale energy and forces
   NPACO  =    256;   APACO  = 10.0  distance and # of slots for P.C.
   PSTRESS=    0.0 pullay stress

  Mass of Ions in am
   POMASS =   7.01151.97 95.94 16.00
  Ionic Valenz
   ZVAL   =   3.00 17.00 12.00  6.00
  Atomic Wigner-Seitz radii
   RWIGS  =  -1.00 -1.00 -1.00 -1.00
  virtual crystal weights 
   VCA    =   1.00  1.00  1.00  1.00
   NELECT =     360.0000    total number of electrons
   NUPDOWN=      -1.0000    fix difference up-down

 DOS related values:
   EMIN   =  10.00;   EMAX   =-10.00  energy-range for DOS
   EFERMI =   0.00
   ISMEAR =    -5;   SIGMA  =   0.05  broadening in eV -4-tet -1-fermi 0-gaus

 Electronic relaxation 2 (details)
   IALGO  =     38    algorithm
   LDIAG  =      T    sub-space diagonalisation (order eigenvalues)
   LSUBROT=      F    optimize rotation matrix (better conditioning)
   TURBO    =      0    0=normal 1=particle mesh
   IRESTART =      0    0=no restart 2=restart with 2 vectors
   NREBOOT  =      0    no. of reboots
   NMIN     =      0    reboot dimension
   EREF     =   0.00    reference energy to select bands
   IMIX   =      4    mixing-type and parameters
     AMIX     =   0.40;   BMIX     =  1.00
     AMIX_MAG =   1.60;   BMIX_MAG =  1.00
     AMIN     =   0.10
     WC   =   100.;   INIMIX=   1;  MIXPRE=   1;  MAXMIX= -45

 Intra band minimization:
   WEIMIN = 0.0000     energy-eigenvalue tresh-hold
   EBREAK =  0.27E-05  absolut break condition
   DEPER  =   0.30     relativ break condition  

   TIME   =   0.40     timestep for ELM

  volume/ion in A,a.u.               =      13.42        90.55
  Fermi-wavevector in a.u.,A,eV,Ry     =   1.330314  2.513929 24.078712  1.769735
  Thomas-Fermi vector in A             =   2.459410
 
 Write flags
   LWAVE        =      F    write WAVECAR
   LDOWNSAMPLE  =      F    k-point downsampling of WAVECAR
   LCHARG       =      T    write CHGCAR
   LVTOT        =      F    write LOCPOT, total local potential
   LVHAR        =      T    write LOCPOT, Hartree potential only
   LELF         =      F    write electronic localiz. function (ELF)
   LORBIT       =     11    0 simple, 1 ext, 2 COOP (PROOUT), +10 PAW based schemes


 Dipole corrections
   LMONO  =      F    monopole corrections only (constant potential shift)
   LDIPOL =      F    correct potential (dipole corrections)
   IDIPOL =      0    1-x, 2-y, 3-z, 4-all directions 
   EPSILON=  1.0000000 bulk dielectric constant

 LDA+U is selected, type is set to LDAUTYPE =  2
   angular momentum for each species LDAUL =     0    0    2    0
   U (eV)           for each species LDAUU =   0.0  0.0  4.4  0.0
   J (eV)           for each species LDAUJ =   0.0  0.0  0.0  0.0
 Exchange correlation treatment:
   GGA     =    --    GGA type
   LEXCH   =     8    internal setting for exchange type
   LIBXC   =     F    Libxc                    
   VOSKOWN =     0    Vosko Wilk Nusair interpolation
   LHFCALC =     F    Hartree Fock is set to
   LHFONE  =     F    Hartree Fock one center treatment
   AEXX    =    0.0000 exact exchange contribution

 Linear response parameters
   LEPSILON=     F    determine dielectric tensor
   LRPA    =     F    only Hartree local field effects (RPA)
   LNABLA  =     F    use nabla operator in PAW spheres
   LVEL    =     F    velocity operator in full k-point grid
   CSHIFT  =0.1000    complex shift for real part using Kramers Kronig
   OMEGAMAX=  -1.0    maximum frequency
   DEG_THRESHOLD= 0.2000000E-02 threshold for treating states as degnerate
   RTIME   =   -0.100 relaxation time in fs
  (WPLASMAI=    0.000 imaginary part of plasma frequency in eV, 0.658/RTIME)
   DFIELD  = 0.0000000 0.0000000 0.0000000 field for delta impulse in time
 
  Optional k-point grid parameters
   LKPOINTS_OPT  =     F    use optional k-point grid
   KPOINTS_OPT_MODE=     1    mode for optional k-point grid
 
 Orbital magnetization related:
   ORBITALMAG=     F  switch on orbital magnetization
   LCHIMAG   =     F  perturbation theory with respect to B field
   DQ        =  0.001000  dq finite difference perturbation B field
   LLRAUG    =     F  two centre corrections for induced B field



--------------------------------------------------------------------------------------------------------


 Static calculation
 charge density and potential will be updated during run
 spin polarized calculation
 Variant of blocked Davidson
 Davidson routine will perform the subspace rotation
 perform sub-space diagonalisation
    after iterative eigenvector-optimisation
 modified Broyden-mixing scheme, WC =      100.0
 initial mixing is a Kerker type mixing with AMIX =  0.4000 and BMIX =      1.0000
 Hartree-type preconditioning will be used
 using additional bands            48
 real space projection scheme for non local part
 use partial core corrections
 calculate Harris-corrections to forces 
   (improved forces if not selfconsistent)
 use gradient corrections 
 use of overlap-Matrix (Vanderbilt PP)
 Fermi weights with tetrahedron method with Bloechl corrections


--------------------------------------------------------------------------------------------------------


  energy-cutoff  :      520.00
  volume of cell :      670.91
      direct lattice vectors                 reciprocal lattice vectors
     6.917697000  0.000000000  0.000000000     0.144556780 -0.039387563 -0.000300733
     2.655028000  9.744251000  0.000000000     0.000000000  0.102624614 -0.043291630
     1.164710000  4.198623000  9.953011000     0.000000000  0.000000000  0.100472108

  length of vectors
     6.917697000 10.099485196 10.864962607     0.149827010  0.111382120  0.100472108


 
 k-points in units of 2pi/SCALE and weight: Kpoints from vasprun.xml                
   0.00000000  0.00000000  0.00000000       0.042
   0.03613919 -0.00984689 -0.00007518       0.083
   0.07227839 -0.01969378 -0.00015037       0.042
   0.00000000  0.03420820 -0.01443054       0.083
   0.03613919  0.02436131 -0.01450573       0.083
   0.07227839  0.01451442 -0.01458091       0.083
  -0.03613919  0.04405510 -0.01435536       0.083
   0.00000000  0.00000000  0.05023605       0.042
   0.03613919 -0.00984689  0.05016087       0.083
   0.07227839 -0.01969378  0.05008569       0.042
   0.00000000  0.03420820  0.03580551       0.083
   0.03613919  0.02436131  0.03573033       0.083
   0.07227839  0.01451442  0.03565514       0.083
  -0.03613919  0.04405510  0.03588069       0.083
 
 k-points in reciprocal lattice and weights: Kpoints from vasprun.xml                
   0.00000000  0.00000000  0.00000000       0.042
   0.25000000  0.00000000  0.00000000       0.083
   0.50000000  0.00000000  0.00000000       0.042
   0.00000000  0.33333333  0.00000000       0.083
   0.25000000  0.33333333  0.00000000       0.083
   0.50000000  0.33333333  0.00000000       0.083
  -0.25000000  0.33333333  0.00000000       0.083
   0.00000000  0.00000000  0.50000000       0.042
   0.25000000  0.00000000  0.50000000       0.083
   0.50000000  0.00000000  0.50000000       0.042
   0.00000000  0.33333333  0.50000000       0.083
   0.25000000  0.33333333  0.50000000       0.083
   0.50000000  0.33333333  0.50000000       0.083
  -0.25000000  0.33333333  0.50000000       0.083
 
 position of ions in fractional coordinates (direct lattice) 
   0.19731800  0.39747100  0.13019700
   0.69775600  0.89806100  0.12993600
   0.30257500  0.10209900  0.86990400
   0.80396200  0.60433400  0.86702900
   0.24984400  0.75021800  0.99932600
   0.75003900  0.24998800  0.99996600
   0.97805500  0.79502500  0.56212400
   0.47583000  0.29499900  0.56152400
   0.52116300  0.70643500  0.44199800
   0.02444100  0.20022100  0.44035300
   0.09071400  0.60900100  0.31976800
   0.59453400  0.10633900  0.31917400
   0.40739700  0.89168400  0.68100600
   0.90830100  0.39332900  0.68183100
   0.36414500  0.48186300  0.80125800
   0.86559900  0.97844000  0.80117800
   0.13447100  0.01885600  0.19870700
   0.63431500  0.52011700  0.19778000
   0.69532600  0.99287700  0.93147000
   0.19356900  0.49374500  0.93185400
   0.80515800  0.50691700  0.06824300
   0.30532700  0.00669900  0.06822500
   0.33622000  0.54858700  0.40484100
   0.83257500  0.05069800  0.40305100
   0.16685500  0.95176200  0.59653300
   0.66520700  0.45124000  0.59493400
   0.14183200  0.18485100  0.22605000
   0.64166800  0.68477400  0.22470300
   0.35798500  0.31552000  0.77408400
   0.85670400  0.81586400  0.77701100
   0.39882300  0.16590900  0.42745400
   0.89768400  0.66355500  0.42599400
   0.10279400  0.33423300  0.57256500
   0.59750800  0.83531900  0.57244100
   0.31099900  0.64671700  0.64412600
   0.80842300  0.14962500  0.64114300
   0.19302700  0.85271800  0.35394800
   0.69086900  0.35222300  0.35740000
   0.05223000  0.45273800  0.29201500
   0.55187300  0.95198000  0.29120300
   0.44840300  0.04844500  0.70834000
   0.94837800  0.54610800  0.70783100
   0.11074500  0.94626800  0.86301500
   0.61055200  0.44672000  0.86221400
   0.38994400  0.55338900  0.13695700
   0.88866900  0.05293200  0.13760400
   0.06477500  0.75960900  0.16128300
   0.56697800  0.25903400  0.16185200
   0.43375100  0.73987400  0.83941300
   0.93468700  0.24059100  0.83914300
 
 position of ions in cartesian coordinates  (Angst):
   2.57192452  4.41970531  1.29585217
   7.36257945  9.29648408  1.29325444
   3.37738376  4.64727723  8.65816408
   8.17592655  9.52911008  8.62954917
   4.88411987 11.50610562  9.94630267
   7.01693808  6.63442607  9.95267260
   9.53141322 10.10706991  5.59482636
   4.72889099  5.23217188  5.58885455
   5.99565192  8.73946292  4.39921096
   1.21355134  3.79987991  4.38283825
   2.61688366  7.27684388  3.18265442
   4.76688424  2.37628520  3.17674233
   5.97886949 11.54808016  6.77806021
   8.12178600  6.69544782  6.78627144
   4.73163774  8.05957429  7.97492969
   9.51887723 12.89800933  7.97413345
   1.21172887  1.01803338  1.97773296
   5.99928051  5.89855425  1.96850652
   8.53106324 13.58573407  9.27093116
   3.73529816  8.72367885  9.27475311
   6.99520121  5.22605311  0.67922333
   2.20940804  0.35172779  0.67904418
   4.25390429  7.04534416  4.02938693
   6.36354372  2.18627324  4.01157104
   4.37599504 11.77882499  5.93729951
   6.49268088  6.89489940  5.92138465
   1.73521808  2.75033327  2.24987814
   6.51867277  7.61605292  2.23647143
   4.21572957  6.32459296  7.70446657
   8.99755294 11.21235985  7.73359903
   3.69728966  3.41137714  4.25445436
   8.46782249  8.25443468  4.23992297
   2.26536790  5.66083482  5.69874574
   7.01790239 10.54302195  5.69751157
   4.61866859  9.00621501  6.41099316
   6.73642959  4.14990130  6.38130333
   4.01153924  9.79519244  3.52284834
   6.13065169  4.93273718  3.55720613
   1.90345617  5.63765360  2.90642851
   6.68439080 10.49898368  2.89834666
   4.05554960  3.44611286  7.05011581
   8.83494152  8.29332894  7.04504973
   4.28363059 12.84414753  8.58959779
   6.41389711  7.97306334  8.58162543
   4.32629292  5.96739213  1.36313453
   6.44834757  1.09353001  1.36957413
   2.65272491  8.07898727  1.60525147
   4.79843518  3.20364784  1.61091474
   5.94261689 10.73389669  8.35468682
   8.08201554  5.86762419  8.35199951
 


--------------------------------------------------------------------------------------------------------


 k-point   1 :   0.0000 0.0000 0.0000  plane waves:   18083
 k-point   2 :   0.2500 0.0000 0.0000  plane waves:   18068
 k-point   3 :   0.5000 0.0000 0.0000  plane waves:   18068
 k-point   4 :   0.0000 0.3333 0.0000  plane waves:   18049
 k-point   5 :   0.2500 0.3333 0.0000  plane waves:   18055
 k-point   6 :   0.5000 0.3333 0.0000  plane waves:   18080
 k-point   7 :  -0.2500 0.3333 0.0000  plane waves:   18080
 k-point   8 :   0.0000 0.0000 0.5000  plane waves:   18048
 k-point   9 :   0.2500 0.0000 0.5000  plane waves:   18057
 k-point  10 :   0.5000 0.0000 0.5000  plane waves:   18098
 k-point  11 :   0.0000 0.3333 0.5000  plane waves:   18079
 k-point  12 :   0.2500 0.3333 0.5000  plane waves:   18068
 k-point  13 :   0.5000 0.3333 0.5000  plane waves:   18071
 k-point  14 :  -0.2500 0.3333 0.5000  plane waves:   18088

 maximum and minimum number of plane-waves per node :     18098    18048

 maximum number of plane-waves:     18098
 maximum index in each direction: 
   IXMAX=   13   IYMAX=   18   IZMAX=   20
   IXMIN=  -13   IYMIN=  -19   IZMIN=  -20


 serial   3D FFT for wavefunctions
 parallel 3D FFT for charge:
    minimum data exchange during FFTs selected (reduces bandwidth)


 total amount of memory used by VASP MPI-rank0   756522. kBytes
=======================================================================

   base      :      30000. kBytes
   nonlr-proj:      38466. kBytes
   fftplans  :     107823. kBytes
   grid      :      99532. kBytes
   one-center:       4915. kBytes
   wavefun   :     475786. kBytes
 
     INWAV:  cpu time      0.0002: real time      0.0004
 Broyden mixing: mesh for mixing (old mesh)
   NGX = 25   NGY = 37   NGZ = 41
  (NGX  =108   NGY  =160   NGZ  =168)
  gives a total of  37925 points

 charge density for first step will be calculated from the start-wavefunctions


--------------------------------------------------------------------------------------------------------


 Maximum index for non-local projection operator         10369
 Maximum index for augmentation-charges         60064 (set IRDMAX)


--------------------------------------------------------------------------------------------------------


 initial charge from wavefunction
 First call to EWALD:  gamma=   0.202
 Maximum number of real-space cells 3x 3x 2
 Maximum number of reciprocal cells 2x 3x 3

    FEWALD:  cpu time      0.0038: real time      0.0038


--------------------------------------- Iteration      1(   1)  ---------------------------------------


    POTLOK:  cpu time      0.1099: real time      0.1565
    SETDIJ:  cpu time      4.3413: real time      4.3430
atom =   1  type =  1  l = 0
 
 onsite density matrix
 
spin component  1
 
  0.5238
 
spin component  2
 
  0.5219
 
 occupancies and eigenvectors
 
  o =  0.5219  v =  0.0000  1.0000      0.0000  0.0000
  o =  0.5238  v =  1.0000  0.0000      0.0000  0.0000
 
atom =   2  type =  1  l = 0
 
 onsite density matrix
 
spin component  1
 
  0.5248
 
spin component  2
 
  0.5267
 
 occupancies and eigenvectors
 
  o =  0.5248  v =  1.0000  0.0000      0.0000  0.0000
  o =  0.5267  v =  0.0000  1.0000      0.0000  0.0000
 
atom =   3  type =  1  l = 0
 
 onsite density matrix
 
spin component  1
 
  0.5262
 
spin component  2
 
  0.5280
 
 occupancies and eigenvectors
 
  o =  0.5262  v =  1.0000  0.0000      0.0000  0.0000
  o =  0.5280  v =  0.0000  1.0000      0.0000  0.0000
 
atom =   4  type =  1  l = 0
 
 onsite density matrix
 
spin component  1
 
  0.5252
 
spin component  2
 
  0.5244
 
 occupancies and eigenvectors
 
  o =  0.5244  v =  0.0000  1.0000      0.0000  0.0000
  o =  0.5252  v =  1.0000  0.0000      0.0000  0.0000
 
atom =   5  type =  1  l = 0
 
 onsite density matrix
 
spin component  1
 
  0.5215
 
spin component  2
 
  0.5261
 
 occupancies and eigenvectors
 
  o =  0.5215  v =  1.0000  0.0000      0.0000  0.0000
  o =  0.5261  v =  0.0000  1.0000      0.0000  0.0000
 
atom =   6  type =  1  l = 0
 
 onsite density matrix
 
spin component  1
 
  0.5229
 
spin component  2
 
  0.5232
 
 occupancies and eigenvectors
 
  o =  0.5229  v =  1.0000  0.0000      0.0000  0.0000
  o =  0.5232  v =  0.0000  1.0000      0.0000  0.0000
 
atom =   7  type =  1  l = 0
 
 onsite density matrix
 
spin component  1
 
  0.5178
 
spin component  2
 
  0.5334
 
 occupancies and eigenvectors
 
  o =  0.5178  v =  1.0000  0.0000      0.0000  0.0000
  o =  0.5334  v =  0.0000  1.0000      0.0000  0.0000
 
atom =   8  type =  2  l = 0
 
 onsite density matrix
 
spin component  1
 
  0.5537
 
spin component  2
 
  0.5536
 
 occupancies and eigenvectors
 
  o =  0.5536  v =  0.0000  1.0000      0.0000  0.0000
  o =  0.5537  v =  1.0000  0.0000      0.0000  0.0000
 
atom =   9  type =  2  l = 0
 
 onsite density matrix
 
spin component  1
 
  0.5532
 
spin component  2
 
  0.5465
 
 occupancies and eigenvectors
 
  o =  0.5465  v =  0.0000  1.0000      0.0000  0.0000
  o =  0.5532  v =  1.0000  0.0000      0.0000  0.0000
 
atom =  10  type =  2  l = 0
 
 onsite density matrix
 
spin component  1
 
  0.5498
 
spin component  2
 
  0.5607
 
 occupancies and eigenvectors
 
  o =  0.5498  v =  1.0000  0.0000      0.0000  0.0000
  o =  0.5607  v =  0.0000  1.0000      0.0000  0.0000
 
atom =  11  type =  3  l = 2
 
 onsite density matrix
 
spin component  1
 
  0.2086  0.0016  0.0021  0.0017 -0.0023
  0.0016  0.2050  0.0001 -0.0049 -0.0038
  0.0021  0.0001  0.2077  0.0049 -0.0009
  0.0017 -0.0049  0.0049  0.2019  0.0017
 -0.0023 -0.0038 -0.0009  0.0017  0.1972
 
spin component  2
 
  0.2016 -0.0000  0.0030  0.0003  0.0029
 -0.0000  0.2068  0.0035 -0.0006  0.0002
  0.0030  0.0035  0.2067  0.0058 -0.0022
  0.0003 -0.0006  0.0058  0.2021  0.0007
  0.0029  0.0002 -0.0022  0.0007  0.2058
 
 occupancies and eigenvectors
 
  o =  0.1954  v =  0.1428  0.2546  0.1119 -0.1811  0.9325  0.0000  0.0000  0.0000  0.0000  0.0000      0.0000  0.0000  0.0000  0.0000  0.0000  0.0000  0.0000  0.0000  0.0000  0.0000
  o =  0.1960  v =  0.0000  0.0000  0.0000  0.0000  0.0000  0.4361  0.2229 -0.5747  0.5786 -0.3084      0.0000  0.0000  0.0000  0.0000  0.0000  0.0000  0.0000  0.0000  0.0000  0.0000
  o =  0.1965  v = -0.1101  0.5112 -0.3249  0.7850  0.0687  0.0000  0.0000  0.0000  0.0000  0.0000      0.0000  0.0000  0.0000  0.0000  0.0000  0.0000  0.0000  0.0000  0.0000  0.0000
  o =  0.2007  v =  0.0000  0.0000  0.0000  0.0000  0.0000  0.7554 -0.1133  0.1239 -0.5602 -0.2954      0.0000  0.0000  0.0000  0.0000  0.0000  0.0000  0.0000  0.0000  0.0000  0.0000
  o =  0.2051  v = -0.6128  0.4433  0.6345 -0.1012 -0.1230  0.0000  0.0000  0.0000  0.0000  0.0000      0.0000  0.0000  0.0000  0.0000  0.0000  0.0000  0.0000  0.0000  0.0000  0.0000
  o =  0.2062  v =  0.0000  0.0000  0.0000  0.0000  0.0000  0.1003 -0.8710  0.2154  0.4162 -0.1084      0.0000  0.0000  0.0000  0.0000  0.0000  0.0000  0.0000  0.0000  0.0000  0.0000
  o =  0.2075  v =  0.0000  0.0000  0.0000  0.0000  0.0000  0.4387 -0.0117 -0.0310  0.1177  0.8903      0.0000  0.0000  0.0000  0.0000  0.0000  0.0000  0.0000  0.0000  0.0000  0.0000
  o =  0.2107  v = -0.5981 -0.6580 -0.0033  0.3141  0.3326 -0.0000 -0.0000 -0.0000 -0.0000 -0.0000     -0.0000 -0.0000 -0.0000 -0.0000 -0.0000 -0.0000 -0.0000 -0.0000 -0.0000 -0.0000
  o =  0.2126  v = -0.4840  0.2107 -0.6923 -0.4920  0.0041  0.0000  0.0000  0.0000  0.0000  0.0000      0.0000  0.0000  0.0000  0.0000  0.0000  0.0000  0.0000  0.0000  0.0000  0.0000
  o =  0.2127  v =  0.0000  0.0000  0.0000  0.0000  0.0000 -0.1913 -0.4228 -0.7791 -0.4054  0.1152      0.0000  0.0000  0.0000  0.0000  0.0000  0.0000  0.0000  0.0000  0.0000  0.0000
 
atom =  12  type =  3  l = 2
 
 onsite density matrix
 
spin component  1
 
  0.2013 -0.0008 -0.0039  0.0007  0.0006
 -0.0008  0.2032 -0.0021 -0.0005  0.0002
 -0.0039 -0.0021  0.2014 -0.0008  0.0017
  0.0007 -0.0005 -0.0008  0.2029 -0.0007
  0.0006  0.0002  0.0017 -0.0007  0.2007
 
spin component  2
 
  0.2011  0.0024  0.0034 -0.0004  0.0022
  0.0024  0.2021 -0.0008 -0.0006  0.0023
  0.0034 -0.0008  0.2008 -0.0027  0.0011
 -0.0004 -0.0006 -0.0027  0.2044 -0.0046
  0.0022  0.0023  0.0011 -0.0046  0.2040
 
 occupancies and eigenvectors
 
  o =  0.1961  v = -0.0000 -0.0000 -0.0000 -0.0000 -0.0000  0.6280 -0.3072 -0.6325 -0.2895 -0.1654     -0.0000 -0.0000 -0.0000 -0.0000 -0.0000 -0.0000 -0.0000 -0.0000 -0.0000 -0.0000
  o =  0.1961  v =  0.5914  0.2797  0.6724  0.0014 -0.3463 -0.0000 -0.0000 -0.0000 -0.0000 -0.0000     -0.0000 -0.0000 -0.0000 -0.0000 -0.0000 -0.0000 -0.0000 -0.0000 -0.0000 -0.0000
  o =  0.1991  v =  0.0000  0.0000  0.0000  0.0000  0.0000  0.0932 -0.5182 -0.0649  0.5049  0.6809      0.0000  0.0000  0.0000  0.0000  0.0000  0.0000  0.0000  0.0000  0.0000  0.0000
  o =  0.2010  v =  0.2171  0.2135  0.1675  0.3505  0.8697  0.0000  0.0000  0.0000  0.0000  0.0000      0.0000  0.0000  0.0000  0.0000  0.0000  0.0000  0.0000  0.0000  0.0000  0.0000
  o =  0.2023  v =  0.4972 -0.3467 -0.1459 -0.7289  0.2829  0.0000  0.0000  0.0000  0.0000  0.0000      0.0000  0.0000  0.0000  0.0000  0.0000  0.0000  0.0000  0.0000  0.0000  0.0000
  o =  0.2026  v =  0.0000  0.0000  0.0000  0.0000  0.0000 -0.5559  0.2613 -0.6853 -0.1834  0.3455      0.0000  0.0000  0.0000  0.0000  0.0000  0.0000  0.0000  0.0000  0.0000  0.0000
  o =  0.2035  v =  0.0000  0.0000  0.0000  0.0000  0.0000 -0.4272 -0.7087  0.1803 -0.5266 -0.0733      0.0000  0.0000  0.0000  0.0000  0.0000  0.0000  0.0000  0.0000  0.0000  0.0000
  o =  0.2040  v = -0.2494  0.8151 -0.0761 -0.5106  0.0826  0.0000  0.0000  0.0000  0.0000  0.0000      0.0000  0.0000  0.0000  0.0000  0.0000  0.0000  0.0000  0.0000  0.0000  0.0000
  o =  0.2061  v =  0.5419  0.3026 -0.7020  0.2918 -0.1920  0.0000  0.0000  0.0000  0.0000  0.0000      0.0000  0.0000  0.0000  0.0000  0.0000  0.0000  0.0000  0.0000  0.0000  0.0000
  o =  0.2110  v =  0.0000  0.0000  0.0000  0.0000  0.0000 -0.3246 -0.2579 -0.3059  0.5919 -0.6199      0.0000  0.0000  0.0000  0.0000  0.0000  0.0000  0.0000  0.0000  0.0000  0.0000
 
atom =  13  type =  3  l = 2
 
 onsite density matrix
 
spin component  1
 
  0.2023 -0.0005 -0.0028  0.0017 -0.0014
 -0.0005  0.2020 -0.0021 -0.0001  0.0027
 -0.0028 -0.0021  0.2009  0.0009  0.0034
  0.0017 -0.0001  0.0009  0.2021  0.0003
 -0.0014  0.0027  0.0034  0.0003  0.2002
 
spin component  2
 
  0.2019  0.0005  0.0032 -0.0006  0.0008
  0.0005  0.2024 -0.0002 -0.0009 -0.0002
  0.0032 -0.0002  0.2008 -0.0012  0.0018
 -0.0006 -0.0009 -0.0012  0.2039 -0.0033
  0.0008 -0.0002  0.0018 -0.0033  0.2023
 
 occupancies and eigenvectors
 
  o =  0.1951  v = -0.1758 -0.4504 -0.6226  0.0962  0.6078  0.0000  0.0000  0.0000  0.0000  0.0000      0.0000  0.0000  0.0000  0.0000  0.0000  0.0000  0.0000  0.0000  0.0000  0.0000
  o =  0.1979  v =  0.0000  0.0000  0.0000  0.0000  0.0000  0.5884 -0.0898 -0.7723  0.0181  0.2211      0.0000  0.0000  0.0000  0.0000  0.0000  0.0000  0.0000  0.0000  0.0000  0.0000
  o =  0.1990  v =  0.6677 -0.1261  0.2718 -0.5046  0.4580  0.0000  0.0000  0.0000  0.0000  0.0000      0.0000  0.0000  0.0000  0.0000  0.0000  0.0000  0.0000  0.0000  0.0000  0.0000
  o =  0.1994  v =  0.0000  0.0000  0.0000  0.0000  0.0000 -0.1951  0.2688  0.0446  0.5885  0.7358      0.0000  0.0000  0.0000  0.0000  0.0000  0.0000  0.0000  0.0000  0.0000  0.0000
  o =  0.2026  v = -0.0000 -0.0000 -0.0000 -0.0000 -0.0000  0.1858  0.9414 -0.0475 -0.0187 -0.2767     -0.0000 -0.0000 -0.0000 -0.0000 -0.0000 -0.0000 -0.0000 -0.0000 -0.0000 -0.0000
  o =  0.2032  v =  0.3589  0.2373  0.1812  0.8181  0.3358  0.0000  0.0000  0.0000  0.0000  0.0000      0.0000  0.0000  0.0000  0.0000  0.0000  0.0000  0.0000  0.0000  0.0000  0.0000
  o =  0.2034  v = -0.0000 -0.0000 -0.0000 -0.0000 -0.0000  0.6768 -0.1541  0.4915  0.4916 -0.1872     -0.0000 -0.0000 -0.0000 -0.0000 -0.0000 -0.0000 -0.0000 -0.0000 -0.0000 -0.0000
  o =  0.2038  v = -0.0123  0.8441 -0.4183 -0.2420  0.2319  0.0000  0.0000  0.0000  0.0000  0.0000      0.0000  0.0000  0.0000  0.0000  0.0000  0.0000  0.0000  0.0000  0.0000  0.0000
  o =  0.2063  v = -0.6279  0.1112  0.5751 -0.0912  0.5043  0.0000  0.0000  0.0000  0.0000  0.0000      0.0000  0.0000  0.0000  0.0000  0.0000  0.0000  0.0000  0.0000  0.0000  0.0000
  o =  0.2079  v =  0.0000  0.0000  0.0000  0.0000  0.0000 -0.3509 -0.0985 -0.3971  0.6414 -0.5460      0.0000  0.0000  0.0000  0.0000  0.0000  0.0000  0.0000  0.0000  0.0000  0.0000
 
atom =  14  type =  3  l = 2
 
 onsite density matrix
 
spin component  1
 
  0.2034  0.0001  0.0004  0.0001 -0.0020
  0.0001  0.2052  0.0006 -0.0047  0.0004
  0.0004  0.0006  0.2093  0.0056  0.0011
  0.0001 -0.0047  0.0056  0.2020 -0.0003
 -0.0020  0.0004  0.0011 -0.0003  0.1988
 
spin component  2
 
  0.2019 -0.0007  0.0044  0.0021  0.0033
 -0.0007  0.2076  0.0025 -0.0011 -0.0007
  0.0044  0.0025  0.2020  0.0044 -0.0022
  0.0021 -0.0011  0.0044  0.2053 -0.0020
  0.0033 -0.0007 -0.0022 -0.0020  0.2031
 
 occupancies and eigenvectors
 
  o =  0.1953  v =  0.0000  0.0000  0.0000  0.0000  0.0000 -0.6205 -0.1504  0.6494 -0.0895  0.4034      0.0000  0.0000  0.0000  0.0000  0.0000  0.0000  0.0000  0.0000  0.0000  0.0000
  o =  0.1965  v =  0.0912  0.4241 -0.3830  0.7609  0.2936  0.0000  0.0000  0.0000  0.0000  0.0000      0.0000  0.0000  0.0000  0.0000  0.0000  0.0000  0.0000  0.0000  0.0000  0.0000
  o =  0.1980  v =  0.3377 -0.2148  0.0353 -0.2436  0.8827  0.0000  0.0000  0.0000  0.0000  0.0000      0.0000  0.0000  0.0000  0.0000  0.0000  0.0000  0.0000  0.0000  0.0000  0.0000
  o =  0.1996  v =  0.0000  0.0000  0.0000  0.0000  0.0000 -0.3240  0.2412 -0.4429  0.6611  0.4512      0.0000  0.0000  0.0000  0.0000  0.0000  0.0000  0.0000  0.0000  0.0000  0.0000
  o =  0.2041  v =  0.9365  0.0358  0.0026  0.0037 -0.3487  0.0000  0.0000  0.0000  0.0000  0.0000      0.0000  0.0000  0.0000  0.0000  0.0000  0.0000  0.0000  0.0000  0.0000  0.0000
  o =  0.2058  v =  0.0000  0.0000  0.0000  0.0000  0.0000 -0.5656 -0.2307 -0.0967  0.2506 -0.7448      0.0000  0.0000  0.0000  0.0000  0.0000  0.0000  0.0000  0.0000  0.0000  0.0000
  o =  0.2071  v =  0.0068  0.8427  0.4422 -0.2885  0.1051  0.0000  0.0000  0.0000  0.0000  0.0000      0.0000  0.0000  0.0000  0.0000  0.0000  0.0000  0.0000  0.0000  0.0000  0.0000
  o =  0.2085  v =  0.0000  0.0000  0.0000  0.0000  0.0000 -0.2467  0.9052  0.0561 -0.2807 -0.1947      0.0000  0.0000  0.0000  0.0000  0.0000  0.0000  0.0000  0.0000  0.0000  0.0000
  o =  0.2109  v =  0.0000  0.0000  0.0000  0.0000  0.0000  0.3595  0.2161  0.6080  0.6429 -0.2026      0.0000  0.0000  0.0000  0.0000  0.0000  0.0000  0.0000  0.0000  0.0000  0.0000
  o =  0.2128  v = -0.0216  0.2502 -0.8103 -0.5277 -0.0440  0.0000  0.0000  0.0000  0.0000  0.0000      0.0000  0.0000  0.0000  0.0000  0.0000  0.0000  0.0000  0.0000  0.0000  0.0000
 
atom =  15  type =  3  l = 2
 
 onsite density matrix
 
spin component  1
 
  0.2060  0.0009 -0.0000  0.0003 -0.0057
  0.0009  0.2004  0.0010 -0.0018 -0.0027
 -0.0000  0.0010  0.2051  0.0014 -0.0001
  0.0003 -0.0018  0.0014  0.2020 -0.0034
 -0.0057 -0.0027 -0.0001 -0.0034  0.1984
 
spin component  2
 
  0.1980 -0.0007 -0.0013 -0.0006  0.0015
 -0.0007  0.1963 -0.0024  0.0022 -0.0016
 -0.0013 -0.0024  0.2004 -0.0011 -0.0027
 -0.0006  0.0022 -0.0011  0.2008 -0.0022
  0.0015 -0.0016 -0.0027 -0.0022  0.2064
 
 occupancies and eigenvectors
 
  o =  0.1933  v = -0.3154 -0.3574  0.0637 -0.3828 -0.7888 -0.0000 -0.0000 -0.0000 -0.0000 -0.0000     -0.0000 -0.0000 -0.0000 -0.0000 -0.0000 -0.0000 -0.0000 -0.0000 -0.0000 -0.0000
  o =  0.1943  v =  0.0000  0.0000  0.0000  0.0000  0.0000  0.2247  0.8539  0.4199 -0.1456  0.1510      0.0000  0.0000  0.0000  0.0000  0.0000  0.0000  0.0000  0.0000  0.0000  0.0000
  o =  0.1975  v =  0.0000  0.0000  0.0000  0.0000  0.0000  0.7951 -0.2863  0.3025  0.4404  0.0196      0.0000  0.0000  0.0000  0.0000  0.0000  0.0000  0.0000  0.0000  0.0000  0.0000
  o =  0.1985  v =  0.0000  0.0000  0.0000  0.0000  0.0000 -0.5306 -0.0697  0.4765  0.5673  0.4059      0.0000  0.0000  0.0000  0.0000  0.0000  0.0000  0.0000  0.0000  0.0000  0.0000
  o =  0.2000  v =  0.4381 -0.7443  0.2304 -0.3049  0.3286  0.0000  0.0000  0.0000  0.0000  0.0000      0.0000  0.0000  0.0000  0.0000  0.0000  0.0000  0.0000  0.0000  0.0000  0.0000
  o =  0.2032  v =  0.1253  0.5309  0.2864 -0.7799  0.1109  0.0000  0.0000  0.0000  0.0000  0.0000      0.0000  0.0000  0.0000  0.0000  0.0000  0.0000  0.0000  0.0000  0.0000  0.0000
  o =  0.2032  v =  0.0000  0.0000  0.0000  0.0000  0.0000  0.0547  0.4087 -0.6645  0.6209  0.0538      0.0000  0.0000  0.0000  0.0000  0.0000  0.0000  0.0000  0.0000  0.0000  0.0000
  o =  0.2056  v = -0.2258  0.0224  0.9208  0.3172  0.0005  0.0000  0.0000  0.0000  0.0000  0.0000      0.0000  0.0000  0.0000  0.0000  0.0000  0.0000  0.0000  0.0000  0.0000  0.0000
  o =  0.2083  v =  0.0000  0.0000  0.0000  0.0000  0.0000 -0.1811  0.1301  0.2523  0.2783 -0.8995      0.0000  0.0000  0.0000  0.0000  0.0000  0.0000  0.0000  0.0000  0.0000  0.0000
  o =  0.2099  v = -0.8012 -0.1896 -0.1138 -0.2273  0.5075  0.0000  0.0000  0.0000  0.0000  0.0000      0.0000  0.0000  0.0000  0.0000  0.0000  0.0000  0.0000  0.0000  0.0000  0.0000
 
atom =  16  type =  3  l = 2
 
 onsite density matrix
 
spin component  1
 
  0.2035 -0.0016  0.0010  0.0010  0.0016
 -0.0016  0.2038  0.0008  0.0000  0.0024
  0.0010  0.0008  0.2062 -0.0073  0.0030
  0.0010  0.0000 -0.0073  0.2053  0.0039
  0.0016  0.0024  0.0030  0.0039  0.2056
 
spin component  2
 
  0.1983 -0.0010 -0.0002 -0.0014  0.0048
 -0.0010  0.2024  0.0006 -0.0011 -0.0019
 -0.0002  0.0006  0.2008  0.0003 -0.0034
 -0.0014 -0.0011  0.0003  0.2046  0.0000
  0.0048 -0.0019 -0.0034  0.0000  0.2060
 
 occupancies and eigenvectors
 
  o =  0.1955  v =  0.0000  0.0000  0.0000  0.0000  0.0000  0.8362  0.0487 -0.2674  0.1417 -0.4548      0.0000  0.0000  0.0000  0.0000  0.0000  0.0000  0.0000  0.0000  0.0000  0.0000
  o =  0.1959  v =  0.0552 -0.0660 -0.5958 -0.6557  0.4557 -0.0000 -0.0000 -0.0000 -0.0000 -0.0000     -0.0000 -0.0000 -0.0000 -0.0000 -0.0000 -0.0000 -0.0000 -0.0000 -0.0000 -0.0000
  o =  0.1999  v =  0.0000  0.0000  0.0000  0.0000  0.0000  0.3814  0.1758  0.8694  0.1005  0.2401      0.0000  0.0000  0.0000  0.0000  0.0000  0.0000  0.0000  0.0000  0.0000  0.0000
  o =  0.2007  v = -0.6565 -0.6416  0.1622  0.1032  0.3471  0.0000  0.0000  0.0000  0.0000  0.0000      0.0000  0.0000  0.0000  0.0000  0.0000  0.0000  0.0000  0.0000  0.0000  0.0000
  o =  0.2014  v =  0.0000  0.0000  0.0000  0.0000  0.0000  0.0564 -0.8895  0.2535 -0.2953 -0.2326      0.0000  0.0000  0.0000  0.0000  0.0000  0.0000  0.0000  0.0000  0.0000  0.0000
  o =  0.2052  v =  0.0000  0.0000  0.0000  0.0000  0.0000  0.1296  0.3207 -0.0093 -0.9381 -0.0142      0.0000  0.0000  0.0000  0.0000  0.0000  0.0000  0.0000  0.0000  0.0000  0.0000
  o =  0.2052  v = -0.7143  0.6904 -0.1050 -0.0431 -0.0129  0.0000  0.0000  0.0000  0.0000  0.0000      0.0000  0.0000  0.0000  0.0000  0.0000  0.0000  0.0000  0.0000  0.0000  0.0000
  o =  0.2095  v = -0.2356 -0.3242 -0.3200 -0.2641 -0.8169  0.0000  0.0000  0.0000  0.0000  0.0000      0.0000  0.0000  0.0000  0.0000  0.0000  0.0000  0.0000  0.0000  0.0000  0.0000
  o =  0.2101  v =  0.0000  0.0000  0.0000  0.0000  0.0000 -0.3679  0.2695  0.3290  0.0505 -0.8254      0.0000  0.0000  0.0000  0.0000  0.0000  0.0000  0.0000  0.0000  0.0000  0.0000
  o =  0.2131  v = -0.0156  0.0472  0.7108 -0.6984 -0.0669  0.0000  0.0000  0.0000  0.0000  0.0000      0.0000  0.0000  0.0000  0.0000  0.0000  0.0000  0.0000  0.0000  0.0000  0.0000
 
atom =  17  type =  3  l = 2
 
 onsite density matrix
 
spin component  1
 
  0.2050 -0.0021  0.0001 -0.0011  0.0022
 -0.0021  0.2069  0.0009  0.0010  0.0032
  0.0001  0.0009  0.2052 -0.0065  0.0035
 -0.0011  0.0010 -0.0065  0.2082  0.0033
  0.0022  0.0032  0.0035  0.0033  0.2055
 
spin component  2
 
  0.2011  0.0000  0.0024 -0.0012  0.0021
  0.0000  0.1985  0.0020 -0.0013  0.0006
  0.0024  0.0020  0.2059  0.0010 -0.0034
 -0.0012 -0.0013  0.0010  0.2033 -0.0003
  0.0021  0.0006 -0.0034 -0.0003  0.2042
 
 occupancies and eigenvectors
 
  o =  0.1965  v =  0.0000  0.0000  0.0000  0.0000  0.0000 -0.4405 -0.6733  0.4094 -0.2495  0.3504      0.0000  0.0000  0.0000  0.0000  0.0000  0.0000  0.0000  0.0000  0.0000  0.0000
  o =  0.1967  v =  0.2388  0.1161  0.6084  0.5176 -0.5398  0.0000  0.0000  0.0000  0.0000  0.0000      0.0000  0.0000  0.0000  0.0000  0.0000  0.0000  0.0000  0.0000  0.0000  0.0000
  o =  0.1993  v =  0.0000  0.0000  0.0000  0.0000  0.0000 -0.6319  0.6850  0.1808  0.0051  0.3142      0.0000  0.0000  0.0000  0.0000  0.0000  0.0000  0.0000  0.0000  0.0000  0.0000
  o =  0.2023  v = -0.5922 -0.5875  0.3911  0.2530  0.2952  0.0000  0.0000  0.0000  0.0000  0.0000      0.0000  0.0000  0.0000  0.0000  0.0000  0.0000  0.0000  0.0000  0.0000  0.0000
  o =  0.2032  v =  0.0000  0.0000  0.0000  0.0000  0.0000 -0.1880  0.0906 -0.1707 -0.8439 -0.4638      0.0000  0.0000  0.0000  0.0000  0.0000  0.0000  0.0000  0.0000  0.0000  0.0000
  o =  0.2051  v = -0.0000 -0.0000 -0.0000 -0.0000 -0.0000  0.6039  0.2390  0.3245 -0.4570  0.5139     -0.0000 -0.0000 -0.0000 -0.0000 -0.0000 -0.0000 -0.0000 -0.0000 -0.0000 -0.0000
  o =  0.2073  v =  0.7615 -0.4941  0.0200  0.1457  0.3928  0.0000  0.0000  0.0000  0.0000  0.0000      0.0000  0.0000  0.0000  0.0000  0.0000  0.0000  0.0000  0.0000  0.0000  0.0000
  o =  0.2089  v =  0.0000  0.0000  0.0000  0.0000  0.0000  0.0816  0.1099  0.8156  0.1293 -0.5471      0.0000  0.0000  0.0000  0.0000  0.0000  0.0000  0.0000  0.0000  0.0000  0.0000
  o =  0.2110  v =  0.0229  0.6179  0.3881  0.0997  0.6761  0.0000  0.0000  0.0000  0.0000  0.0000      0.0000  0.0000  0.0000  0.0000  0.0000  0.0000  0.0000  0.0000  0.0000  0.0000
  o =  0.2135  v = -0.1090  0.1240 -0.5708  0.7980  0.1003  0.0000  0.0000  0.0000  0.0000  0.0000      0.0000  0.0000  0.0000  0.0000  0.0000  0.0000  0.0000  0.0000  0.0000  0.0000
 
atom =  18  type =  3  l = 2
 
 onsite density matrix
 
spin component  1
 
  0.2097  0.0026  0.0011  0.0010 -0.0059
  0.0026  0.1992  0.0006 -0.0019 -0.0011
  0.0011  0.0006  0.2050  0.0008  0.0001
  0.0010 -0.0019  0.0008  0.2023 -0.0031
 -0.0059 -0.0011  0.0001 -0.0031  0.2011
 
spin component  2
 
  0.1982  0.0003 -0.0006  0.0008  0.0012
  0.0003  0.1956 -0.0015  0.0005  0.0008
 -0.0006 -0.0015  0.2003  0.0012 -0.0029
  0.0008  0.0005  0.0012  0.2002 -0.0032
  0.0012  0.0008 -0.0029 -0.0032  0.2025
 
 occupancies and eigenvectors
 
  o =  0.1950  v =  0.0000  0.0000  0.0000  0.0000  0.0000  0.0744  0.9256  0.2724 -0.2311 -0.1003      0.0000  0.0000  0.0000  0.0000  0.0000  0.0000  0.0000  0.0000  0.0000  0.0000
  o =  0.1965  v = -0.1767 -0.4838  0.1142 -0.5075 -0.6812  0.0000  0.0000  0.0000  0.0000  0.0000      0.0000  0.0000  0.0000  0.0000  0.0000  0.0000  0.0000  0.0000  0.0000  0.0000
  o =  0.1968  v =  0.0000  0.0000  0.0000  0.0000  0.0000  0.6418 -0.1776 -0.1950 -0.5168 -0.5014      0.0000  0.0000  0.0000  0.0000  0.0000  0.0000  0.0000  0.0000  0.0000  0.0000
  o =  0.1982  v =  0.4316 -0.7507 -0.0019 -0.0945  0.4912  0.0000  0.0000  0.0000  0.0000  0.0000      0.0000  0.0000  0.0000  0.0000  0.0000  0.0000  0.0000  0.0000  0.0000  0.0000
  o =  0.1985  v =  0.0000  0.0000  0.0000  0.0000  0.0000  0.5809 -0.1667  0.6611  0.1116  0.4304      0.0000  0.0000  0.0000  0.0000  0.0000  0.0000  0.0000  0.0000  0.0000  0.0000
  o =  0.2001  v = -0.0000 -0.0000 -0.0000 -0.0000 -0.0000 -0.4841 -0.2717  0.4748 -0.6829 -0.0042     -0.0000 -0.0000 -0.0000 -0.0000 -0.0000 -0.0000 -0.0000 -0.0000 -0.0000 -0.0000
  o =  0.2039  v =  0.2198  0.4158  0.1563 -0.8204  0.2851  0.0000  0.0000  0.0000  0.0000  0.0000      0.0000  0.0000  0.0000  0.0000  0.0000  0.0000  0.0000  0.0000  0.0000  0.0000
  o =  0.2050  v =  0.1240  0.0334 -0.9729 -0.1678 -0.0940  0.0000  0.0000  0.0000  0.0000  0.0000      0.0000  0.0000  0.0000  0.0000  0.0000  0.0000  0.0000  0.0000  0.0000  0.0000
  o =  0.2065  v =  0.0000  0.0000  0.0000  0.0000  0.0000 -0.1039 -0.1001  0.4747  0.4480 -0.7438      0.0000  0.0000  0.0000  0.0000  0.0000  0.0000  0.0000  0.0000  0.0000  0.0000
  o =  0.2138  v = -0.8478 -0.1686 -0.1266 -0.1796  0.4523 -0.0000 -0.0000 -0.0000 -0.0000 -0.0000     -0.0000 -0.0000 -0.0000 -0.0000 -0.0000 -0.0000 -0.0000 -0.0000 -0.0000 -0.0000
 
atom =  19  type =  4  l = 0
 
 onsite density matrix
 
spin component  1
 
  0.3443
 
spin component  2
 
  0.3560
 
 occupancies and eigenvectors
 
  o =  0.3443  v =  1.0000  0.0000      0.0000  0.0000
  o =  0.3560  v =  0.0000  1.0000      0.0000  0.0000
 
atom =  20  type =  4  l = 0
 
 onsite density matrix
 
spin component  1
 
  0.3495
 
spin component  2
 
  0.3463
 
 occupancies and eigenvectors
 
  o =  0.3463  v =  0.0000  1.0000      0.0000  0.0000
  o =  0.3495  v =  1.0000  0.0000      0.0000  0.0000
 
atom =  21  type =  4  l = 0
 
 onsite density matrix
 
spin component  1
 
  0.3536
 
spin component  2
 
  0.3502
 
 occupancies and eigenvectors
 
  o =  0.3502  v =  0.0000  1.0000      0.0000  0.0000
  o =  0.3536  v =  1.0000  0.0000      0.0000  0.0000
 
atom =  22  type =  4  l = 0
 
 onsite density matrix
 
spin component  1
 
  0.3423
 
spin component  2
 
  0.3532
 
 occupancies and eigenvectors
 
  o =  0.3423  v =  1.0000  0.0000      0.0000  0.0000
  o =  0.3532  v =  0.0000  1.0000      0.0000  0.0000
 
atom =  23  type =  4  l = 0
 
 onsite density matrix
 
spin component  1
 
  0.3473
 
spin component  2
 
  0.3482
 
 occupancies and eigenvectors
 
  o =  0.3473  v =  1.0000  0.0000      0.0000  0.0000
  o =  0.3482  v =  0.0000  1.0000      0.0000  0.0000
 
atom =  24  type =  4  l = 0
 
 onsite density matrix
 
spin component  1
 
  0.3457
 
spin component  2
 
  0.3443
 
 occupancies and eigenvectors
 
  o =  0.3443  v =  0.0000  1.0000      0.0000  0.0000
  o =  0.3457  v =  1.0000  0.0000      0.0000  0.0000
 
atom =  25  type =  4  l = 0
 
 onsite density matrix
 
spin component  1
 
  0.3464
 
spin component  2
 
  0.3471
 
 occupancies and eigenvectors
 
  o =  0.3464  v =  1.0000  0.0000      0.0000  0.0000
  o =  0.3471  v =  0.0000  1.0000      0.0000  0.0000
 
atom =  26  type =  4  l = 0
 
 onsite density matrix
 
spin component  1
 
  0.3414
 
spin component  2
 
  0.3444
 
 occupancies and eigenvectors
 
  o =  0.3414  v =  1.0000  0.0000      0.0000  0.0000
  o =  0.3444  v =  0.0000  1.0000      0.0000  0.0000
 
atom =  27  type =  4  l = 0
 
 onsite density matrix
 
spin component  1
 
  0.3428
 
spin component  2
 
  0.3408
 
 occupancies and eigenvectors
 
  o =  0.3408  v =  0.0000  1.0000      0.0000  0.0000
  o =  0.3428  v =  1.0000  0.0000      0.0000  0.0000
 
atom =  28  type =  4  l = 0
 
 onsite density matrix
 
spin component  1
 
  0.3357
 
spin component  2
 
  0.3482
 
 occupancies and eigenvectors
 
  o =  0.3357  v =  1.0000  0.0000      0.0000  0.0000
  o =  0.3482  v =  0.0000  1.0000      0.0000  0.0000
 
atom =  29  type =  4  l = 0
 
 onsite density matrix
 
spin component  1
 
  0.3420
 
spin component  2
 
  0.3473
 
 occupancies and eigenvectors
 
  o =  0.3420  v =  1.0000  0.0000      0.0000  0.0000
  o =  0.3473  v =  0.0000  1.0000      0.0000  0.0000
 
atom =  30  type =  4  l = 0
 
 onsite density matrix
 
spin component  1
 
  0.3452
 
spin component  2
 
  0.3373
 
 occupancies and eigenvectors
 
  o =  0.3373  v =  0.0000  1.0000      0.0000  0.0000
  o =  0.3452  v =  1.0000  0.0000      0.0000  0.0000
 
atom =  31  type =  4  l = 0
 
 onsite density matrix
 
spin component  1
 
  0.3464
 
spin component  2
 
  0.3447
 
 occupancies and eigenvectors
 
  o =  0.3447  v =  0.0000  1.0000      0.0000  0.0000
  o =  0.3464  v =  1.0000  0.0000      0.0000  0.0000
 
atom =  32  type =  4  l = 0
 
 onsite density matrix
 
spin component  1
 
  0.3469
 
spin component  2
 
  0.3434
 
 occupancies and eigenvectors
 
  o =  0.3434  v =  0.0000  1.0000      0.0000  0.0000
  o =  0.3469  v =  1.0000  0.0000      0.0000  0.0000
 
atom =  33  type =  4  l = 0
 
 onsite density matrix
 
spin component  1
 
  0.3454
 
spin component  2
 
  0.3428
 
 occupancies and eigenvectors
 
  o =  0.3428  v =  0.0000  1.0000      0.0000  0.0000
  o =  0.3454  v =  1.0000  0.0000      0.0000  0.0000
 
atom =  34  type =  4  l = 0
 
 onsite density matrix
 
spin component  1
 
  0.3506
 
spin component  2
 
  0.3458
 
 occupancies and eigenvectors
 
  o =  0.3458  v =  0.0000  1.0000      0.0000  0.0000
  o =  0.3506  v =  1.0000  0.0000      0.0000  0.0000
 
atom =  35  type =  4  l = 0
 
 onsite density matrix
 
spin component  1
 
  0.3523
 
spin component  2
 
  0.3538
 
 occupancies and eigenvectors
 
  o =  0.3523  v =  1.0000  0.0000      0.0000  0.0000
  o =  0.3538  v =  0.0000  1.0000      0.0000  0.0000
 
atom =  36  type =  4  l = 0
 
 onsite density matrix
 
spin component  1
 
  0.3463
 
spin component  2
 
  0.3382
 
 occupancies and eigenvectors
 
  o =  0.3382  v =  0.0000  1.0000      0.0000  0.0000
  o =  0.3463  v =  1.0000  0.0000      0.0000  0.0000
 
atom =  37  type =  4  l = 0
 
 onsite density matrix
 
spin component  1
 
  0.3466
 
spin component  2
 
  0.3421
 
 occupancies and eigenvectors
 
[...]
  277        set_dd_magatom                        0.000004                            1   3
  278        set_dd_paw                            4.032358                            1   3
  279          m_sumb_d                              0.211793                          7   4
  280        strkin                                0.003259                            1   3
  281          m_sumb_d                              0.000009                          1   4
  282        strelo                                0.004243                            1   3
  283          m_sumb_d                              0.000064                          2   4
  284        strnlr                                3.937890                            1   3
  285          rspher_all                            0.312093                          9   4
  286          phaser                                1.084310                        126   4
  287          rpro_isp                              2.532888                        126   4
  288            fftwav_mpi                            0.483271                    14364   5
  289              fftwav                                0.465744                  14364   6
  290                fft3d                                 0.097954                14364   7
  291            rpromu_acc                            1.238294                     3780   5
  292          m_sumb_d                              0.000014                          1   4
  293        fft3d_mpi                             0.004827                           22   3
  294          fftbrc_mpi                            0.003876                         22   4
  295            fftbas_plan_mpi                       0.003859                       22   5
  296              map_forward                           0.001533                     20   6
  297                map_gather                            0.000287                   10   7
  298                m_alltoallv_z                         0.000149                   10   7
  299                map_scatter                           0.000902                   10   7
  300              map_backward                          0.001678                     24   6
  301                map_gather                            0.000375                   12   7
  302                m_alltoallv_z                         0.000151                   12   7
  303                map_scatter                           0.000861                   12   7
  304        m_sumb_d                              0.000030                            5   3
  305        forhar                                0.004598                            2   3
  306          m_sumb_d                              0.000043                          2   4
  307        strehar                               0.003421                            1   3
  308          m_sumb_d                              0.000004                          1   4
  309        chggra                                0.001094                            1   3
  310          fft3d_mpi                             0.000682                          3   4
  311            fftbrc_mpi                            0.000545                        3   5
  312              fftbas_plan_mpi                       0.000543                      3   6
  313                map_forward                           0.000323                    4   7
  314                  map_gather                            0.000057                  2   8
  315                  m_alltoallv_z                         0.000030                  2   8
  316                  map_scatter                           0.000196                  2   8
  317                map_backward                          0.000130                    2   7
  318                  map_gather                            0.000030                  1   8
  319                  m_alltoallv_z                         0.000012                  1   8
  320                  map_scatter                           0.000063                  1   8
  321          m_sumb_d                              0.000008                          2   4
  322          pothar                                0.000105                          1   4
  323            m_sumb_d                              0.000019                        1   5
  324        brmix                                 0.022919                            1   3
  325          m_sumb_d                              0.000056                          6   4
  326          brpre                                 0.000057                          2   4
  327          setg0                                 0.003364                          1   4
  328          broyd                                 0.015997                          1   4
  329            brget                                 0.004031                      326   5
  330            brsav                                 0.001849                      163   5
  331            m_sumb_d                              0.000960                       47   5
  332        m_bcast_d                             0.000124                            2   3
  333      potlok                                0.085520                              2   2
  334        fft3d_mpi                             0.050916                           36   3
  335          fftbrc_mpi                            0.042448                         36   4
  336            fftbas_plan_mpi                       0.042427                       36   5
  337              map_forward                           0.011870                     40   6
  338                map_gather                            0.003164                   24   7
  339                m_alltoallv_z                         0.004925                   24   7
  340                map_scatter                           0.003539                   24   7
  341              map_backward                          0.009932                     32   6
  342                map_gather                            0.002882                   16   7
  343                m_alltoallv_z                         0.003767                   16   7
  344                map_scatter                           0.002989                   16   7
  345              dfftw_execute                         0.018743                     30   6
  346        m_sumb_d                              0.000040                            5   3
  347        pothar                                0.003541                            2   3
  348          m_sumb_d                              0.000239                          2   4
  349        m_bcast_d                             0.005874                            4   3
  350      potlok_metagga                        0.000000                              1   2
  351      set_dd_magatom                        0.000004                              1   2
  352      set_dd_paw                            4.036903                              1   2
  353        m_sumb_d                              0.210725                            7   3
  354      augmentation_charge                   0.292515                              1   2
  355        fft3d_mpi                             0.146687                            2   3
  356          fftbrc_mpi                            0.124156                          2   4
  357            fftbas_plan_mpi                       0.124153                        2   5
  358              dfftw_execute                         0.076325                      6   6
  359              map_backward                          0.047536                      4   6
  360                map_gather                            0.017453                    2   7
  361                m_alltoallv_z                         0.012301                    2   7
  362                map_scatter                           0.017768                    2   7
  363      densta                               12.348860                              1   2
 
 Flat profile
 ============
 
             routine name                   CPU           calls
 ---------------------------------------------------------------
 set_dd_paw                            394.074500         103
 eddav                                 206.517256         105
 raccmu_                               195.830758      358997
 lapack                                178.549146      358997
 m_sumb_d                              105.680670     1089206
 redis_pw                               86.367920     1949147
 m_alltoall_d                           37.356492     5100739
 phaser                                 25.824577        3122
 total_time                             24.876980           1
 densta                                 22.792056         106
 dfftw_execute                          20.435123        2856
 eccp                                   20.178335      167580
 orth1                                  19.573959     1077215
 fft3d                                  18.651513     2093949
 setdij_                                18.101547         129
 redis_proj                             16.680073     2485192
 augmentation_charge                    15.195275         103
 hamiltmu                               14.697667      358997
 fftwav                                 13.559834     1390352
 init_acc                               11.549092           1
 racc0mu_acc                            10.541488      358997
 w1_copy                                10.373140     2110791
 overl                                  10.297915     1239642
 rpromu_acc                              9.664683      279197
 m_bcast_z                               8.731912      365381
 ggemm                                   7.636767      444257
 soft_charge                             6.590415         102
 setup_precond                           6.202630      167580
 m_bcast_d                               5.871561      718205
 overl_mu                                5.686507      358997
 fft3d_mpi                               5.632514      707226
 pw_charge                               5.424233      129990
 map_scatter                             4.001715        4039
 m_alltoallv_z                           3.798883        4039
 map_gather                              3.774850        4039
 kinhamil                                3.213303      703597
 vhamil                                  3.178718      703597
 fftext_mpi                              2.982255      703597
 apply_precond                           2.982168      536017
 newband                                 2.760666      361937
 depsum                                  2.706034         102
 acc_init_cublas                         2.410196           1
 fftwav_mpi                              1.900594     1390352
 rpro_isp                                1.133657         182
 potlok                                  0.908391         103
 acc_init_cusolver                       0.795881           1
 broyd                                   0.731183         101
 sphpro_fast                             0.567946           2
 rspher_all                              0.464122          14
 elmin                                   0.393063           1
 brmix                                   0.390463         101
 setg0                                   0.261723         103
 w1_projall                              0.259464      273737
 brget                                   0.243459       19007
 fftbas_plan_mpi                         0.211920        3629
 lincom                                  0.127631        2968
 proall                                  0.127418           1
 acc_cufft_makeplan                      0.119256          19
 orthch                                  0.077977           1
 set_charge                              0.072078         102
 truncate_high_frequency_w1              0.068222      871177
 brsav                                   0.064282        5269
 stufak                                  0.055622           1
 force_and_stress                        0.048257           1
 map_backward                            0.032655        3830
 map_forward                             0.026325        3428
 fft_gq                                  0.022213         102
 choleski                                0.018397          28
 pothar                                  0.013083         104
 strnlr                                  0.008585           1
 brpre                                   0.006167         202
 forhar                                  0.004555           2
 strelo                                  0.004179           1
 strehar                                 0.003417           1
 strkin                                  0.003250           1
 fornlr                                  0.002917           1
 forloc                                  0.002565           1
 rsp                                     0.002517           1
 fftbrc_mpi                              0.002471        3629
 vectorpot                               0.000623         102
 set_dd_magatom                          0.000468         103
 brgrid                                  0.000443           1
 fewald                                  0.000347           1
 chggra                                  0.000299           1
 fordep                                  0.000162           1
 rcp                                     0.000086           1
 crpa_reader                             0.000029           1
 acc_cufft_makeplans                     0.000012           3
 potlok_metagga                          0.000011         102
 rotate_active_occupied_orbital          0.000000           1
 redis_pw_over_bands                     0.000000           1
 ---------------------------------------------------------------
  summed up times     1580.133709907532     
 
 Accumulative profile
 ====================
 
             routine name                   CPU           calls
 ---------------------------------------------------------------
 total_time                           1580.133710           1
 elmin                                1498.386417           1
 eddav                                 995.954252         105
 set_dd_paw                            416.398344         103
 hamiltmu                              241.414574      358997
 raccmu_                               212.058754      358997
 lapack                                178.549146      358997
 m_sumb_d                              105.680670     1089206
 redis_pw                              105.592188     1949147
 set_charge                             53.661287         102
 fft3d_mpi                              42.985648      707226
 newband                                42.501818      361937
 setdij_                                38.769338         129
 m_alltoall_d                           37.356492     5100739
 redis_proj                             34.812297     2485192
 fftbrc_mpi                             32.283940        3629
 fftbas_plan_mpi                        32.281470        3629
 augmentation_charge                    30.449551         103
 fftwav_mpi                             29.042747     1390352
 fftwav                                 27.142154     1390352
 phaser                                 25.824577        3122
 densta                                 22.792056         106
 soft_charge                            20.670788         102
 dfftw_execute                          20.435123        2856
 eccp                                   20.178335      167580
 orth1                                  19.573959     1077215
 fft3d                                  18.651513     2093949
 force_and_stress                       17.602148           1
 init_acc                               11.549092           1
 kinhamil                               11.479435      703597
 racc0mu_acc                            10.541488      358997
 w1_copy                                10.373140     2110791
 overl                                  10.297915     1239642
 rpromu_acc                              9.664683      279197
 m_bcast_z                               8.731912      365381
 fftext_mpi                              8.266132      703597
 w1_projall                              8.257807      273737
 ggemm                                   7.636767      444257
 setup_precond                           6.202630      167580
 map_backward                            6.106450        3830
 m_bcast_d                               5.871561      718205
 overl_mu                                5.686507      358997
 map_forward                             5.527978        3428
 pw_charge                               5.424233      129990
 map_scatter                             4.001715        4039
 strnlr                                  3.937890           1
 m_alltoallv_z                           3.798883        4039
 map_gather                              3.774850        4039
 rpro_isp                                3.482754         182
 vhamil                                  3.178718      703597
 apply_precond                           2.982168      536017
 depsum                                  2.761384         102
 acc_init_cublas                         2.410196           1
 fordep                                  1.788025           1
 brmix                                   1.771352         101
 potlok                                  1.713021         103
 fornlr                                  1.315045           1
 broyd                                   1.101180         101
 acc_init_cusolver                       0.795881           1
 sphpro_fast                             0.594778           2
 fft_gq                                  0.572330         102
 rspher_all                              0.464122          14
 orthch                                  0.456978           1
 proall                                  0.349254           1
 setg0                                   0.261723         103
 brget                                   0.243459       19007
 lincom                                  0.127631        2968
 acc_cufft_makeplans                     0.119268           3
 acc_cufft_makeplan                      0.119256          19
 truncate_high_frequency_w1              0.068222      871177
 brsav                                   0.064282        5269
 stufak                                  0.055622           1
 choleski                                0.018397          28
 pothar                                  0.014461         104
 brpre                                   0.006167         202
 forhar                                  0.004598           2
 strelo                                  0.004243           1
 fewald                                  0.003823           1
 strehar                                 0.003421           1
 strkin                                  0.003259           1
 forloc                                  0.002607           1
 rsp                                     0.002517           1
 chggra                                  0.001094           1
 vectorpot                               0.000623         102
 set_dd_magatom                          0.000468         103
 brgrid                                  0.000443           1
 rcp                                     0.000086           1
 crpa_reader                             0.000029           1
 potlok_metagga                          0.000011         102
 rotate_active_occupied_orbital          0.000000           1
 redis_pw_over_bands                     0.000000           1
 ---------------------------------------------------------------
 
Profiling took   4.442694  2.187189  0.003330  0.003223 seconds
Profiling took   2.860923 seconds
