 vasp.6.3.2 27Jun22 (build Jul  3 2023 11:46:21) complex                         
 executed on    LinuxNV_CrayMPICH date 2024.05.14  14:30:45
 running on    4 total cores
 distrk:  each k-point on    4 cores,    1 groups
 distr:  one band on NCORE=   1 cores,    4 groups


--------------------------------------------------------------------------------------------------------


 INCAR:
   ALGO = Fast
   EDIFF = 0.0001
   EDIFFG = -0.05
   ENCUT = 500
   GGA = PE
   IBRION = 2
   ISIF = 0
   ISMEAR = 1
   ISPIN = 2
   ISTART = 1
   ISYM = 0
   LASPH = True
   LCHARG = False
   LMAXMIX = 4
   LORBIT = 11
   LREAL = True
   LVTOT = False
   LWAVE = True
   MAGMOM = 1*-2.5 1*-2.5 1*-2.5 1*-2.5 1*-2.5 1*-2.5 1*-2.5 1*-2.5 1*-2.5 1*-2.5 1*-0 1*-2.5 1*2.5 1*2.5 1*2.5 1*2.5 1*-2.5 1*-2.5 1*-2.5 1*-2.5 1*2.5 1*2.5 1*2.5 1*2.5 1*-2.5 1*-2.5 1*-2.5 1*-2.5 1*2.5 1*2.5 1*2.5 1*2.5 1*0 1*-0 1*0 1*-0 1*-0.0250 1*-0.0250 1*-0.0250 1*-0.0250 1*0 1*0 1*0 1*0 1*-0 1*0 1*-0 1*-0 1*-0 1*-0 1*-0 1*-0 1*-0 1*-0 1*0 1*0 1*0 1*0 1*0 1*0 1*0 1*0 1*-0 1*-0
   NCORE = 4
   NELM = 80
   NELMIN = 8
   NSW = 300
   PREC = Accurate
   SIGMA = 0.2
   SYMPREC = 1e-10

 POTCAR:    PAW_PBE Cr_pv 02Aug2007               
 POTCAR:    PAW_PBE N 08Apr2002                   
 POTCAR:    PAW_PBE Cr_pv 02Aug2007               
   SHA256 =  c9a7df34d3cdbacf1090e328ef39c0b420964e11c23f63548d1ac9dd218cdba0 Cr_pv/POTCAR          
   COPYR  = (c) Copyright 02Aug2007 Georg Kresse                                                    
   COPYR  = This file is part of the software VASP. Any use, copying, and all other rights are regul
   COPYR  = If you do not have a valid VASP license, you may not use, copy or distribute this file. 
   VRHFIN =Cr : p6d5s1                                                                              
   LEXCH  = PE                                                                                      
   EATOM  =  1647.9177 eV,  121.1185 Ry                                                             
                                                                                                    
   TITEL  = PAW_PBE Cr_pv 02Aug2007                                                                 
   LULTRA =        F    use ultrasoft PP ?                                                          
   IUNSCR =        1    unscreen: 0-lin 1-nonlin 2-no                                               
   RPACOR =    2.080    partial core radius                                                         
   POMASS =   51.996; ZVAL   =   12.000    mass and valenz                                          
   RCORE  =    2.300    outmost cutoff radius                                                       
   RWIGS  =    2.500; RWIGS  =    1.323    wigner-seitz radius (au A)                               
   ENMAX  =  265.681; ENMIN  =  199.261 eV                                                          
   ICORE  =        3    local potential                                                             
   LCOR   =        T    correct aug charges                                                         
   LPAW   =        T    paw PP                                                                      
   EAUG   =  519.424                                                                                
   DEXC   =    0.000                                                                                
   RMAX   =    2.356    core radius for proj-oper                                                   
   RAUG   =    1.300    factor for augmentation sphere                                              
   RDEP   =    2.447    radius for radial grids                                                     
   RDEPT  =    1.882    core radius for aug-charge                                                  
                                                                                                    
   Atomic configuration                                                                             
    8 entries                                                                                       
     n  l   j            E        occ.                                                              
     1  0  0.50     -5880.4963   2.0000                                                             
     2  0  0.50      -667.0865   2.0000                                                             
     2  1  1.50      -560.6250   6.0000                                                             
     3  0  0.50       -73.9860   2.0000                                                             
     3  1  1.50       -45.4378   6.0000                                                             
     3  2  2.50        -2.9137   5.0000                                                             
     4  0  0.50        -4.0071   1.0000                                                             
     4  3  2.50        -1.3606   0.0000                                                             
   Description                                                                                      
     l       E           TYP  RCUT    TYP  RCUT                                                     
     1    -45.4377911     23  2.000                                                                 
     1      1.3605826     23  2.000                                                                 
     2     -2.9136672     23  2.300                                                                 
     2     -4.2742498     23  2.300                                                                 
     0     -4.0071320     23  2.300                                                                 
     0      9.4498803     23  2.300                                                                 
     3      2.7211652     23  2.300                                                                 
  local pseudopotential read in
  partial core-charges read in
  partial kinetic energy density read in
  atomic valenz-charges read in
  non local Contribution for L=            1  read in
    real space projection operators read in
  non local Contribution for L=            1  read in
    real space projection operators read in
  non local Contribution for L=            2  read in
    real space projection operators read in
  non local Contribution for L=            2  read in
    real space projection operators read in
  non local Contribution for L=            0  read in
    real space projection operators read in
  non local Contribution for L=            0  read in
    real space projection operators read in
    PAW grid and wavefunctions read in
 
   number of l-projection  operators is LMAX  =            6
   number of lm-projection operators is LMMAX =           18
 
 POTCAR:    PAW_PBE N 08Apr2002                   
   SHA256 =  e053789ff3a61a86a1b75d8a110fcc91f86041011e7b0817c7c99e4e8a6349d7 N/POTCAR              
   COPYR  = (c) Copyright 08Apr2002 Georg Kresse                                                    
   COPYR  = This file is part of the software VASP. Any use, copying, and all other rights are regul
   COPYR  = If you do not have a valid VASP license, you may not use, copy or distribute this file. 
   VRHFIN =N: s2p3                                                                                  
   LEXCH  = PE                                                                                      
   EATOM  =   264.5486 eV,   19.4438 Ry                                                             
                                                                                                    
   TITEL  = PAW_PBE N 08Apr2002                                                                     
   LULTRA =        F    use ultrasoft PP ?                                                          
   IUNSCR =        1    unscreen: 0-lin 1-nonlin 2-no                                               
   RPACOR =    1.200    partial core radius                                                         
   POMASS =   14.001; ZVAL   =    5.000    mass and valenz                                          
   RCORE  =    1.500    outmost cutoff radius                                                       
   RWIGS  =    1.400; RWIGS  =    0.741    wigner-seitz radius (au A)                               
   ENMAX  =  400.000; ENMIN  =  300.000 eV                                                          
   ICORE  =        2    local potential                                                             
   LCOR   =        T    correct aug charges                                                         
   LPAW   =        T    paw PP                                                                      
   EAUG   =  627.112                                                                                
   DEXC   =    0.000                                                                                
   RMAX   =    1.529    core radius for proj-oper                                                   
   RAUG   =    1.300    factor for augmentation sphere                                              
   RDEP   =    1.514    radius for radial grids                                                     
   RDEPT  =    1.338    core radius for aug-charge                                                  
                                                                                                    
   Atomic configuration                                                                             
    4 entries                                                                                       
     n  l   j            E        occ.                                                              
     1  0  0.50      -384.7179   2.0000                                                             
     2  0  0.50       -18.5828   2.0000                                                             
     2  1  0.50        -7.0898   3.0000                                                             
     3  2  1.50        -6.8029   0.0000                                                             
   Description                                                                                      
     l       E           TYP  RCUT    TYP  RCUT                                                     
     0    -18.5828119     23  1.200                                                                 
     0    -13.5018863     23  1.200                                                                 
     1     -7.0897853     23  1.500                                                                 
     1      9.5240782     23  1.500                                                                 
     2     -6.8029130      7  1.500                                                                 
  local pseudopotential read in
  partial core-charges read in
  partial kinetic energy density read in
  atomic valenz-charges read in
  non local Contribution for L=            0  read in
    real space projection operators read in
  non local Contribution for L=            0  read in
    real space projection operators read in
  non local Contribution for L=            1  read in
    real space projection operators read in
  non local Contribution for L=            1  read in
    real space projection operators read in
    PAW grid and wavefunctions read in
 
   number of l-projection  operators is LMAX  =            4
   number of lm-projection operators is LMMAX =            8
 
 -----------------------------------------------------------------------------
|                                                                             |
|           W    W    AA    RRRRR   N    N  II  N    N   GGGG   !!!           |
|           W    W   A  A   R    R  NN   N  II  NN   N  G    G  !!!           |
|           W    W  A    A  R    R  N N  N  II  N N  N  G       !!!           |
|           W WW W  AAAAAA  RRRRR   N  N N  II  N  N N  G  GGG   !            |
|           WW  WW  A    A  R   R   N   NN  II  N   NN  G    G                |
|           W    W  A    A  R    R  N    N  II  N    N   GGGG   !!!           |
|                                                                             |
|     The real-space projection scheme for the treatment of the non-local     |
|     pseudopotentials has been switched on but on file POTCAR I have not     |
|     found any entries, signalling me that you have never performed a        |
|     real-space optimization of all non-local projectors! BE WARNED that     |
|     a calculation using the real-space projection scheme together with      |
|     non-local projectors which were not real-space optimized (according     |
|     to the plane-wave cutoff used in this calculation) might give more      |
|     or less inaccurate results. I hope you know what you are doing.         |
|                                                                             |
 -----------------------------------------------------------------------------

  PAW_PBE Cr_pv 02Aug2007               :
 energy of atom  1       EATOM=-1647.9177
 kinetic energy error for atom=    0.0061 (will be added to EATOM!!)
  PAW_PBE N 08Apr2002                   :
 energy of atom  2       EATOM= -264.5486
 kinetic energy error for atom=    0.0138 (will be added to EATOM!!)
 
 
 POSCAR: Cr32 N32
  positions in direct lattice
  velocities in cartesian coordinates
 exchange correlation table for  LEXCH =        8
   RHO(1)=    0.500       N(1)  =     2000
   RHO(2)=  100.500       N(2)  =     4000

 VTST: version 4.2, (08/11/21)

 CHAIN: initializing optimizer
 
 OPT: Using VASP Conjugate-Gradient optimizer
 CHAIN: Read ICHAIN             0
 
 POSCAR: Cr32 N32
  positions in direct lattice
  velocities in cartesian coordinates
 


--------------------------------------------------------------------------------------------------------


 ion  position               nearest neighbor table
   1  0.000  0.000  0.396-  33 2.07  34 2.07  39 2.08  45 2.08  37 2.08  47 2.08   8 2.93  13 2.93
                             7 2.93  14 2.93   5 2.93  16 2.93   6 2.93  15 2.93   3 2.94   3 2.94
   2  0.000  0.500  0.396-  33 2.07  34 2.07  40 2.08  46 2.08  38 2.08  48 2.08   7 2.93  14 2.93
                             8 2.93  13 2.93   6 2.93  15 2.93   5 2.93  16 2.93   4 2.94   4 2.94
   3  0.500  0.000  0.396-  35 2.07  36 2.07  37 2.08  47 2.08  39 2.08  45 2.08   6 2.93  15 2.93
                             5 2.93  16 2.93   7 2.93  14 2.93   8 2.93  13 2.93   1 2.94   1 2.94
   4  0.500  0.500  0.396-  35 2.07  36 2.07  38 2.08  48 2.08  40 2.08  46 2.08   5 2.93  16 2.93
                             6 2.93  15 2.93   8 2.93  13 2.93   7 2.93  14 2.93   2 2.94   2 2.94
   5  0.250  0.250  0.354-  37 2.07  38 2.07  35 2.08  33 2.08   4 2.93   3 2.93   1 2.93   2 2.93
                            13 2.94   7 2.94   7 2.94
   6  0.250  0.750  0.354-  37 2.07  38 2.07  36 2.08  34 2.08   3 2.93   4 2.93   2 2.93   1 2.93
                            14 2.94   8 2.94   8 2.94
   7  0.750  0.250  0.354-  39 2.07  40 2.07  33 2.08  35 2.08   2 2.93   1 2.93   3 2.93   4 2.93
                            15 2.94   5 2.94   5 2.94
   8  0.750  0.750  0.354-  39 2.07  40 2.07  34 2.08  36 2.08   1 2.93   2 2.93   4 2.93   3 2.93
                            16 2.94   6 2.94   6 2.94
   9  0.000  0.000  0.479-  41 2.07  42 2.07  53 2.07  55 2.07  47 2.08  45 2.08  17 2.83  16 2.93
                            15 2.93  13 2.93  14 2.93  11 2.94  11 2.94   1 2.94  21 2.97  22 2.97
  10  0.000  0.500  0.479-  41 2.07  42 2.07  54 2.07  56 2.07  48 2.08  46 2.08  18 2.83  15 2.93
                            16 2.93  14 2.93  13 2.93  12 2.94  12 2.94   2 2.94  22 2.97  21 2.97
  11  0.500  0.000  0.479-  43 2.07  44 2.07  55 2.07  53 2.07  45 2.08  47 2.08  19 2.83  14 2.93
                            13 2.93  15 2.93  16 2.93   9 2.94   9 2.94   3 2.94  23 2.97  24 2.97
  12  0.500  0.500  0.479-  43 2.07  44 2.07  56 2.07  54 2.07  46 2.08  48 2.08  20 2.83  13 2.93
                            14 2.93  16 2.93  15 2.93  10 2.94  10 2.94   4 2.94  24 2.97  23 2.97
  13  0.250  0.250  0.438-  45 2.07  46 2.07  33 2.08  43 2.08  41 2.08  35 2.08   1 2.93  12 2.93
                            11 2.93   2 2.93   4 2.93   9 2.93   3 2.93  10 2.93   5 2.94  15 2.94
  14  0.250  0.750  0.438-  45 2.07  46 2.07  34 2.08  44 2.08  42 2.08  36 2.08   2 2.93  11 2.93
                             1 2.93  12 2.93   3 2.93  10 2.93   9 2.93   4 2.93   6 2.94  16 2.94
  15  0.750  0.250  0.438-  47 2.07  48 2.07  35 2.08  41 2.08  33 2.08  43 2.08   3 2.93  10 2.93
                             9 2.93   4 2.93   2 2.93  11 2.93   1 2.93  12 2.93   7 2.94  13 2.94
  16  0.750  0.750  0.438-  47 2.07  48 2.07  36 2.08  42 2.08  34 2.08  44 2.08   4 2.93   9 2.93
                             3 2.93  10 2.93   1 2.93  12 2.93  11 2.93   2 2.93   8 2.94  14 2.94
  17  0.000  0.000  0.559-  53 2.01  55 2.01  50 2.07  49 2.07  61 2.19  63 2.19   9 2.83  21 2.84
                            22 2.84  24 2.84  23 2.84  25 2.87  19 2.94  19 2.94  29 3.13  30 3.13
  18  0.000  0.500  0.559-  54 2.01  56 2.01  49 2.07  50 2.07  62 2.19  64 2.19  10 2.83  22 2.84
                            21 2.84  23 2.84  24 2.84  26 2.86  20 2.94  20 2.94  30 3.13  29 3.13
  19  0.500  0.000  0.559-  55 2.01  53 2.01  52 2.07  51 2.07  63 2.19  61 2.19  11 2.83  23 2.84
                            24 2.84  22 2.84  21 2.84  27 2.87  17 2.94  17 2.94  31 3.13  32 3.13
  20  0.500  0.500  0.559-  56 2.01  54 2.01  51 2.07  52 2.07  64 2.19  62 2.19  12 2.83  24 2.84
                            23 2.84  21 2.84  22 2.84  28 2.86  18 2.94  18 2.94  32 3.13  31 3.13
  21  0.250  0.250  0.523-  49 2.01  51 2.01  54 2.07  53 2.07  41 2.13  43 2.13  17 2.84  18 2.84
                            19 2.84  20 2.84  23 2.94  23 2.94   9 2.97  10 2.97  12 2.97  11 2.97
  22  0.250  0.750  0.523-  50 2.01  52 2.01  53 2.07  54 2.07  42 2.13  44 2.13  17 2.84  18 2.84
                            19 2.84  20 2.84  24 2.94  24 2.94  10 2.97   9 2.97  11 2.97  12 2.97
  23  0.750  0.250  0.523-  51 2.01  49 2.01  56 2.07  55 2.07  43 2.13  41 2.13  19 2.84  20 2.84
                            17 2.84  18 2.84  21 2.94  21 2.94  11 2.97  12 2.97  10 2.97   9 2.97
  24  0.750  0.750  0.523-  52 2.01  50 2.01  55 2.07  56 2.07  44 2.13  42 2.13  19 2.84  20 2.84
                            17 2.84  18 2.84  22 2.94  22 2.94  12 2.97  11 2.97   9 2.97  10 2.97
  25  0.000  1.000  0.641-  63 1.93  61 1.93  58 2.08  57 2.08  30 2.74  32 2.74  29 2.74  31 2.74
                            17 2.87  27 2.94  27 2.94
  26  0.000  0.500  0.641-  64 1.93  62 1.93  57 2.08  58 2.08  29 2.74  30 2.74  31 2.74  32 2.74
                            18 2.86  28 2.94  28 2.94
  27  0.500  1.000  0.641-  61 1.93  63 1.93  60 2.08  59 2.08  32 2.74  30 2.74  31 2.74  29 2.74
                            19 2.87  25 2.94  25 2.94
  28  0.500  0.500  0.641-  62 1.93  64 1.93  59 2.08  60 2.08  32 2.74  31 2.74  29 2.74  30 2.74
                            20 2.86  26 2.94  26 2.94
  29  0.250  0.250  0.611-  57 1.92  59 1.92  61 2.08  62 2.08  49 2.30  51 2.30  26 2.74  25 2.74
                            28 2.74  27 2.74  31 2.94  31 2.94  21 3.13  17 3.13  18 3.13  20 3.13
  30  0.250  0.750  0.611-  58 1.92  60 1.92  61 2.08  62 2.08  50 2.30  52 2.30  25 2.74  27 2.74
                            26 2.74  28 2.74  32 2.94  32 2.94  22 3.13  18 3.13  17 3.13  20 3.13
  31  0.750  0.250  0.611-  59 1.92  57 1.92  63 2.08  64 2.08  51 2.30  49 2.30  27 2.74  28 2.74
                            26 2.74  25 2.74  29 2.94  29 2.94  23 3.13  19 3.13  20 3.13  18 3.13
  32  0.750  0.750  0.611-  60 1.92  58 1.92  63 2.08  64 2.08  52 2.30  50 2.30  27 2.74  28 2.74
                            25 2.74  26 2.74  30 2.94  30 2.94  24 3.13  20 3.13  19 3.13  18 3.13
  33  0.000  0.250  0.396-   1 2.07   2 2.07   7 2.08  13 2.08   5 2.08  15 2.08
  34  0.000  0.750  0.396-   1 2.07   2 2.07   8 2.08  14 2.08   6 2.08  16 2.08
  35  0.500  0.250  0.396-   3 2.07   4 2.07   5 2.08  15 2.08   7 2.08  13 2.08
  36  0.500  0.750  0.396-   3 2.07   4 2.07   6 2.08  16 2.08   8 2.08  14 2.08
  37  0.250  0.000  0.354-   5 2.07   6 2.07   3 2.08   1 2.08
  38  0.250  0.500  0.354-   5 2.07   6 2.07   4 2.08   2 2.08
  39  0.750  0.000  0.354-   7 2.07   8 2.07   1 2.08   3 2.08
  40  0.750  0.500  0.354-   7 2.07   8 2.07   2 2.08   4 2.08
  41  0.000  0.250  0.479-   9 2.07  10 2.07  15 2.08  13 2.08  21 2.13  23 2.13
  42  0.000  0.750  0.479-   9 2.07  10 2.07  16 2.08  14 2.08  22 2.13  24 2.13
  43  0.500  0.250  0.479-  11 2.07  12 2.07  13 2.08  15 2.08  23 2.13  21 2.13
  44  0.500  0.750  0.479-  11 2.07  12 2.07  14 2.08  16 2.08  24 2.13  22 2.13
  45  0.250  0.000  0.438-  13 2.07  14 2.07   1 2.08  11 2.08   9 2.08   3 2.08
  46  0.250  0.500  0.438-  13 2.07  14 2.07   2 2.08  12 2.08  10 2.08   4 2.08
  47  0.750  0.000  0.438-  15 2.07  16 2.07   3 2.08   9 2.08   1 2.08  11 2.08
  48  0.750  0.500  0.438-  15 2.07  16 2.07   4 2.08  10 2.08   2 2.08  12 2.08
  49  1.000  0.250  0.561-  21 2.01  23 2.01  18 2.07  17 2.07  29 2.30  31 2.30
  50  0.000  0.750  0.561-  22 2.01  24 2.01  17 2.07  18 2.07  30 2.30  32 2.30
  51  0.500  0.250  0.561-  23 2.01  21 2.01  20 2.07  19 2.07  31 2.30  29 2.30
  52  0.500  0.750  0.561-  24 2.01  22 2.01  19 2.07  20 2.07  32 2.30  30 2.30
  53  0.250  1.000  0.521-  17 2.01  19 2.01  22 2.07  21 2.07   9 2.07  11 2.07
  54  0.250  0.500  0.521-  18 2.01  20 2.01  21 2.07  22 2.07  10 2.07  12 2.07
  55  0.750  1.000  0.521-  19 2.01  17 2.01  24 2.07  23 2.07  11 2.07   9 2.07
  56  0.750  0.500  0.521-  20 2.01  18 2.01  23 2.07  24 2.07  12 2.07  10 2.07
  57  0.000  0.250  0.646-  29 1.92  31 1.92  26 2.08  25 2.08
  58  0.000  0.750  0.646-  30 1.92  32 1.92  25 2.08  26 2.08
  59  0.500  0.250  0.646-  31 1.92  29 1.92  28 2.08  27 2.08
  60  0.500  0.750  0.646-  32 1.92  30 1.92  27 2.08  28 2.08
  61  0.250  1.000  0.605-  27 1.93  25 1.93  30 2.08  29 2.08  17 2.19  19 2.19
  62  0.250  0.500  0.605-  28 1.93  26 1.93  29 2.08  30 2.08  18 2.19  20 2.19
  63  0.750  1.000  0.605-  25 1.93  27 1.93  32 2.08  31 2.08  19 2.19  17 2.19
  64  0.750  0.500  0.605-  26 1.93  28 1.93  32 2.08  31 2.08  20 2.19  18 2.19
 

IMPORTANT INFORMATION: All symmetrisations will be switched off!
NOSYMM: (Re-)initialisation of all symmetry stuff for point group C_1.


----------------------------------------------------------------------------------------

                                     Primitive cell                                     

  volume of cell :    1715.2601

  direct lattice vectors                    reciprocal lattice vectors
     5.882628000  0.000000000 -0.000362000     0.169992051  0.000005103 -0.000000000
    -0.000248000  8.261064000 -0.000163000    -0.000000000  0.121049782  0.000000000
     0.000000000  0.000000000 35.295767000     0.000001743  0.000000559  0.028332009

  length of vectors
     5.882628011  8.261064005 35.295767000     0.169992051  0.121049782  0.028332009

  position of ions in fractional coordinates (direct lattice)
     0.000000000  0.000000000  0.395833000
     0.000000000  0.500000000  0.395833000
     0.500000000  0.000000000  0.395833000
     0.500000000  0.500000000  0.395833000
     0.250000000  0.250000000  0.354167000
     0.250000000  0.750000000  0.354167000
     0.750000000  0.250000000  0.354167000
     0.750000000  0.750000000  0.354167000
     0.000000000  0.000000000  0.479167000
     0.000000000  0.500000000  0.479167000
     0.500000000  0.000000000  0.479167000
     0.500000000  0.500000000  0.479167000
     0.250000000  0.250000000  0.437500000
     0.250000000  0.750000000  0.437500000
     0.750000000  0.250000000  0.437500000
     0.750000000  0.750000000  0.437500000
     0.000006648  0.000002773  0.559355474
     0.000007965  0.500001797  0.559361812
     0.500007529  0.000002496  0.559354860
     0.500008478  0.500001435  0.559361335
     0.249964476  0.249999068  0.522828884
     0.249964882  0.749999521  0.522828852
     0.749963729  0.249998928  0.522828823
     0.749963385  0.749999626  0.522828772
     0.000000482  0.999984451  0.640527142
     0.000000558  0.499997414  0.640526896
     0.500000674  0.999983678  0.640526726
     0.500001179  0.500004752  0.640525088
     0.249962835  0.249993894  0.611437599
     0.249964037  0.750005109  0.611437086
     0.749965045  0.249993969  0.611437619
     0.749966002  0.750003858  0.611437244
     0.000000000  0.250000000  0.395833000
     0.000000000  0.750000000  0.395833000
     0.500000000  0.250000000  0.395833000
     0.500000000  0.750000000  0.395833000
     0.250000000  0.000000000  0.354167000
     0.250000000  0.500000000  0.354167000
     0.750000000  0.000000000  0.354167000
     0.750000000  0.500000000  0.354167000
     0.000000000  0.250000000  0.479167000
     0.000000000  0.750000000  0.479167000
     0.500000000  0.250000000  0.479167000
     0.500000000  0.750000000  0.479167000
     0.250000000  0.000000000  0.437500000
     0.250000000  0.500000000  0.437500000
     0.750000000  0.000000000  0.437500000
     0.750000000  0.500000000  0.437500000
     0.999998366  0.250002682  0.561469977
     0.000007122  0.750003805  0.561469297
     0.499995645  0.250002368  0.561469823
     0.500004633  0.750004054  0.561468992
     0.249864637  0.999992380  0.520583918
     0.249909966  0.499993921  0.520557402
     0.749917878  0.999998656  0.520580763
     0.749906976  0.499994136  0.520557132
     0.000303291  0.250006047  0.646482753
     0.000307530  0.750020075  0.646481945
     0.500306427  0.250006020  0.646481120
     0.500304885  0.750020147  0.646480457
     0.250008643  0.999997979  0.605307049
     0.250008401  0.499998711  0.605305296
     0.750008999  0.999998007  0.605307097
     0.750009398  0.499998611  0.605305346

  ion indices of the primitive-cell ions
   primitive index   ion index
                 1           1
                 2           2
                 3           3
                 4           4
                 5           5
                 6           6
                 7           7
                 8           8
                 9           9
                10          10
                11          11
                12          12
                13          13
                14          14
                15          15
                16          16
                17          17
                18          18
                19          19
                20          20
                21          21
                22          22
                23          23
                24          24
                25          25
                26          26
                27          27
                28          28
                29          29
                30          30
                31          31
                32          32
                33          33
                34          34
                35          35
                36          36
                37          37
                38          38
                39          39
                40          40
                41          41
                42          42
                43          43
                44          44
                45          45
                46          46
                47          47
                48          48
                49          49
                50          50
                51          51
                52          52
                53          53
                54          54
                55          55
                56          56
                57          57
                58          58
                59          59
                60          60
                61          61
                62          62
                63          63
                64          64

----------------------------------------------------------------------------------------

 
 
 KPOINTS: Automatic kpoint scheme                 

Automatic generation of k-mesh.
 Grid dimensions read from file:
 generate k-points for:    6    4    1

 Generating k-lattice:

  Cartesian coordinates                     Fractional coordinates (reciprocal lattice)
     0.028332009  0.000000851 -0.000000000     0.166666667  0.000000000  0.000000000
    -0.000000000  0.030262446  0.000000000     0.000000000  0.250000000  0.000000000
     0.000001743  0.000000559  0.028332009    -0.000000000 -0.000000000  1.000000000

  Length of vectors
     0.028332009  0.030262446  0.028332009

  Shift w.r.t. Gamma in fractional coordinates (k-lattice)
     0.000000000  0.000000000  0.000000000

 
 Subroutine IBZKPT returns following result:
 ===========================================
 
 Found     14 irreducible k-points:
 
 Following reciprocal coordinates:
            Coordinates               Weight
  0.000000  0.000000  0.000000      1.000000
  0.166667  0.000000  0.000000      2.000000
  0.333333  0.000000  0.000000      2.000000
  0.500000  0.000000  0.000000      1.000000
  0.000000  0.250000  0.000000      2.000000
  0.166667  0.250000  0.000000      2.000000
  0.333333  0.250000  0.000000      2.000000
  0.500000  0.250000  0.000000      2.000000
 -0.333333  0.250000  0.000000      2.000000
 -0.166667  0.250000  0.000000      2.000000
  0.000000  0.500000  0.000000      1.000000
  0.166667  0.500000  0.000000      2.000000
  0.333333  0.500000  0.000000      2.000000
  0.500000  0.500000  0.000000      1.000000
 
 Following cartesian coordinates:
            Coordinates               Weight
  0.000000  0.000000  0.000000      1.000000
  0.028332  0.000001  0.000000      2.000000
  0.056664  0.000002  0.000000      2.000000
  0.084996  0.000003  0.000000      1.000000
  0.000000  0.030262  0.000000      2.000000
  0.028332  0.030263  0.000000      2.000000
  0.056664  0.030264  0.000000      2.000000
  0.084996  0.030265  0.000000      2.000000
 -0.056664  0.030261  0.000000      2.000000
 -0.028332  0.030262  0.000000      2.000000
  0.000000  0.060525  0.000000      1.000000
  0.028332  0.060526  0.000000      2.000000
  0.056664  0.060527  0.000000      2.000000
  0.084996  0.060527  0.000000      1.000000
 


--------------------------------------------------------------------------------------------------------




 Dimension of arrays:
   k-points           NKPTS =     14   k-points in BZ     NKDIM =     14   number of bands    NBANDS=    320
   number of dos      NEDOS =    301   number of ions     NIONS =     64
   non local maximal  LDIM  =      6   non local SUM 2l+1 LMDIM =     18
   total plane-waves  NPLWV = 777600
   max r-space proj   IRMAX =   3729   max aug-charges    IRDMAX=  15972
   dimension x,y,z NGX =    48 NGY =   60 NGZ =  270
   dimension x,y,z NGXF=    96 NGYF=  120 NGZF=  540
   support grid    NGXF=    96 NGYF=  120 NGZF=  540
   ions per type =              32  32
   NGX,Y,Z   is equivalent  to a cutoff of  13.57, 12.07, 12.72 a.u.
   NGXF,Y,Z  is equivalent  to a cutoff of  27.13, 24.15, 25.43 a.u.

 SYSTEM =  unknown system                          
 POSCAR =  Cr32 N32                                

 Startparameter for this run:
   NWRITE =      2    write-flag & timer
   PREC   = accura    normal or accurate (medium, high low for compatibility)
   ISTART =      1    job   : 0-new  1-cont  2-samecut
   ICHARG =      0    charge: 1-file 2-atom 10-const
   ISPIN  =      2    spin polarized calculation?
   LNONCOLLINEAR =      F non collinear calculations
   LSORBIT =      F    spin-orbit coupling
   INIWAV =      1    electr: 0-lowe 1-rand  2-diag
   LASPH  =      T    aspherical Exc in radial PAW
 Electronic Relaxation 1
   ENCUT  =  500.0 eV  36.75 Ry    6.06 a.u.  10.73 15.06 64.35*2*pi/ulx,y,z
   ENINI  =  500.0     initial cutoff
   ENAUG  =  627.1 eV  augmentation charge cutoff
   NELM   =     80;   NELMIN=  8; NELMDL=  0     # of ELM steps 
   EDIFF  = 0.1E-03   stopping-criterion for ELM
   LREAL  =      T    real-space projection
   NLSPLINE    = F    spline interpolate recip. space projectors
   LCOMPAT=      F    compatible to vasp.4.4
   GGA_COMPAT  = T    GGA compatible to vasp.4.4-vasp.4.6
   LMAXPAW     = -100 max onsite density
   LMAXMIX     =    4 max onsite mixed and CHGCAR
   VOSKOWN=      0    Vosko Wilk Nusair interpolation
   ROPT   =    0.00000   0.00000
 Ionic relaxation
   EDIFFG = -.5E-01   stopping-criterion for IOM
   NSW    =    300    number of steps for IOM
   NBLOCK =      1;   KBLOCK =    300    inner block; outer block 
   IBRION =      2    ionic relax: 0-MD 1-quasi-New 2-CG
   NFREE  =      1    steps in history (QN), initial steepest desc. (CG)
   ISIF   =      0    stress and relaxation
   IWAVPR =     11    prediction:  0-non 1-charg 2-wave 3-comb
   ISYM   =      0    0-nonsym 1-usesym 2-fastsym
   LCORR  =      T    Harris-Foulkes like correction to forces

   POTIM  = 0.5000    time-step for ionic-motion
   TEIN   =    0.0    initial temperature
   TEBEG  =    0.0;   TEEND  =   0.0 temperature during run
   SMASS  =  -3.00    Nose mass-parameter (am)
   estimated Nose-frequenzy (Omega)   =  0.10E-29 period in steps = 0.13E+47 mass=  -0.791E-27a.u.
   SCALEE = 1.0000    scale energy and forces
   NPACO  =    256;   APACO  = 10.0  distance and # of slots for P.C.
   PSTRESS=    0.0 pullay stress

  Mass of Ions in am
   POMASS =  52.00 14.00
  Ionic Valenz
   ZVAL   =  12.00  5.00
  Atomic Wigner-Seitz radii
   RWIGS  =  -1.00 -1.00
  virtual crystal weights 
   VCA    =   1.00  1.00
   NELECT =     544.0000    total number of electrons
   NUPDOWN=      -1.0000    fix difference up-down

 DOS related values:
   EMIN   =  10.00;   EMAX   =-10.00  energy-range for DOS
   EFERMI =   0.00
   ISMEAR =     1;   SIGMA  =   0.20  broadening in eV -4-tet -1-fermi 0-gaus

 Electronic relaxation 2 (details)
   IALGO  =     68    algorithm
   LDIAG  =      T    sub-space diagonalisation (order eigenvalues)
   LSUBROT=      F    optimize rotation matrix (better conditioning)
   TURBO    =      0    0=normal 1=particle mesh
   IRESTART =      0    0=no restart 2=restart with 2 vectors
   NREBOOT  =      0    no. of reboots
   NMIN     =      0    reboot dimension
   EREF     =   0.00    reference energy to select bands
   IMIX   =      4    mixing-type and parameters
     AMIX     =   0.40;   BMIX     =  1.00
     AMIX_MAG =   1.60;   BMIX_MAG =  1.00
     AMIN     =   0.10
     WC   =   100.;   INIMIX=   1;  MIXPRE=   1;  MAXMIX= -45

 Intra band minimization:
   WEIMIN = 0.0010     energy-eigenvalue tresh-hold
   EBREAK =  0.78E-07  absolut break condition
   DEPER  =   0.30     relativ break condition  

   TIME   =   0.40     timestep for ELM

  volume/ion in A,a.u.               =      26.80       180.86
  Fermi-wavevector in a.u.,A,eV,Ry     =   1.116429  2.109745 16.958490  1.246414
  Thomas-Fermi vector in A             =   2.253043
 
 Write flags
   LWAVE        =      T    write WAVECAR
   LDOWNSAMPLE  =      F    k-point downsampling of WAVECAR
   LCHARG       =      F    write CHGCAR
   LVTOT        =      F    write LOCPOT, total local potential
   LVHAR        =      F    write LOCPOT, Hartree potential only
   LELF         =      F    write electronic localiz. function (ELF)
   LORBIT       =     11    0 simple, 1 ext, 2 COOP (PROOUT), +10 PAW based schemes


 Dipole corrections
   LMONO  =      F    monopole corrections only (constant potential shift)
   LDIPOL =      F    correct potential (dipole corrections)
   IDIPOL =      0    1-x, 2-y, 3-z, 4-all directions 
   EPSILON=  1.0000000 bulk dielectric constant

 Exchange correlation treatment:
   GGA     =    PE    GGA type
   LEXCH   =     8    internal setting for exchange type
   LIBXC   =     F    Libxc                    
   VOSKOWN =     0    Vosko Wilk Nusair interpolation
   LHFCALC =     F    Hartree Fock is set to
   LHFONE  =     F    Hartree Fock one center treatment
   AEXX    =    0.0000 exact exchange contribution

 Linear response parameters
   LEPSILON=     F    determine dielectric tensor
   LRPA    =     F    only Hartree local field effects (RPA)
   LNABLA  =     F    use nabla operator in PAW spheres
   LVEL    =     F    velocity operator in full k-point grid
   CSHIFT  =0.1000    complex shift for real part using Kramers Kronig
   OMEGAMAX=  -1.0    maximum frequency
   DEG_THRESHOLD= 0.2000000E-02 threshold for treating states as degnerate
   RTIME   =   -0.100 relaxation time in fs
  (WPLASMAI=    0.000 imaginary part of plasma frequency in eV, 0.658/RTIME)
   DFIELD  = 0.0000000 0.0000000 0.0000000 field for delta impulse in time
 
  Optional k-point grid parameters
   LKPOINTS_OPT  =     F    use optional k-point grid
   KPOINTS_OPT_MODE=     1    mode for optional k-point grid
 
 Orbital magnetization related:
   ORBITALMAG=     F  switch on orbital magnetization
   LCHIMAG   =     F  perturbation theory with respect to B field
   DQ        =  0.001000  dq finite difference perturbation B field
   LLRAUG    =     F  two centre corrections for induced B field



--------------------------------------------------------------------------------------------------------


 conjugate gradient relaxation of ions
   using selective dynamics as specified on POSCAR
 charge density and potential will be updated during run
 spin polarized calculation
 RMM-DIIS sequential band-by-band and
  variant of blocked Davidson during initial phase
 perform sub-space diagonalisation
    before iterative eigenvector-optimisation
 modified Broyden-mixing scheme, WC =      100.0
 initial mixing is a Kerker type mixing with AMIX =  0.4000 and BMIX =      1.0000
 Hartree-type preconditioning will be used
 using additional bands            48
 real space projection scheme for non local part
 use partial core corrections
 calculate Harris-corrections to forces 
   (improved forces if not selfconsistent)
 use gradient corrections 
 use of overlap-Matrix (Vanderbilt PP)
 Methfessel and Paxton  Order N= 1 SIGMA  =   0.20


--------------------------------------------------------------------------------------------------------


  energy-cutoff  :      500.00
  volume of cell :     1715.26
      direct lattice vectors                 reciprocal lattice vectors
     5.882628000  0.000000000 -0.000362000     0.169992051  0.000005103 -0.000000000
    -0.000248000  8.261064000 -0.000163000    -0.000000000  0.121049782  0.000000000
     0.000000000  0.000000000 35.295767000     0.000001743  0.000000559  0.028332009

  length of vectors
     5.882628011  8.261064005 35.295767000     0.169992051  0.121049782  0.028332009


 
 old parameters found on file WAVECAR:
  energy-cutoff  :      500.00
  volume of cell :     1715.26
      direct lattice vectors                 reciprocal lattice vectors
     5.882628000  0.000000000 -0.000362000     0.169992051  0.000005103 -0.000000000
    -0.000248000  8.261064000 -0.000163000    -0.000000000  0.121049782  0.000000000
     0.000000000  0.000000000 35.295767000     0.000001743  0.000000559  0.028332009

  length of vectors

 
 k-points in units of 2pi/SCALE and weight: Automatic kpoint scheme                 
   0.00000000  0.00000000  0.00000000       0.042
   0.02833201  0.00000085  0.00000000       0.083
   0.05666402  0.00000170  0.00000000       0.083
   0.08499603  0.00000255  0.00000000       0.042
   0.00000000  0.03026245  0.00000000       0.083
   0.02833201  0.03026330  0.00000000       0.083
   0.05666402  0.03026415  0.00000000       0.083
   0.08499603  0.03026500  0.00000000       0.083
  -0.05666402  0.03026074  0.00000000       0.083
  -0.02833201  0.03026160  0.00000000       0.083
   0.00000000  0.06052489  0.00000000       0.042
   0.02833201  0.06052574  0.00000000       0.083
   0.05666402  0.06052659  0.00000000       0.083
   0.08499603  0.06052744  0.00000000       0.042
 
 k-points in reciprocal lattice and weights: Automatic kpoint scheme                 
   0.00000000  0.00000000  0.00000000       0.042
   0.16666667  0.00000000  0.00000000       0.083
   0.33333333  0.00000000  0.00000000       0.083
   0.50000000  0.00000000  0.00000000       0.042
   0.00000000  0.25000000  0.00000000       0.083
   0.16666667  0.25000000  0.00000000       0.083
   0.33333333  0.25000000  0.00000000       0.083
   0.50000000  0.25000000  0.00000000       0.083
  -0.33333333  0.25000000  0.00000000       0.083
  -0.16666667  0.25000000  0.00000000       0.083
   0.00000000  0.50000000  0.00000000       0.042
   0.16666667  0.50000000  0.00000000       0.083
   0.33333333  0.50000000  0.00000000       0.083
   0.50000000  0.50000000  0.00000000       0.042
 
 position of ions in fractional coordinates (direct lattice) 
   0.00000000  0.00000000  0.39583300
   0.00000000  0.50000000  0.39583300
   0.50000000  0.00000000  0.39583300
   0.50000000  0.50000000  0.39583300
   0.25000000  0.25000000  0.35416700
   0.25000000  0.75000000  0.35416700
   0.75000000  0.25000000  0.35416700
   0.75000000  0.75000000  0.35416700
   0.00000000  0.00000000  0.47916700
   0.00000000  0.50000000  0.47916700
   0.50000000  0.00000000  0.47916700
   0.50000000  0.50000000  0.47916700
   0.25000000  0.25000000  0.43750000
   0.25000000  0.75000000  0.43750000
   0.75000000  0.25000000  0.43750000
   0.75000000  0.75000000  0.43750000
   0.00000665  0.00000277  0.55935547
   0.00000797  0.50000180  0.55936181
   0.50000753  0.00000250  0.55935486
   0.50000848  0.50000143  0.55936133
   0.24996448  0.24999907  0.52282888
   0.24996488  0.74999952  0.52282885
   0.74996373  0.24999893  0.52282882
   0.74996339  0.74999963  0.52282877
   0.00000048  0.99998445  0.64052714
   0.00000056  0.49999741  0.64052690
   0.50000067  0.99998368  0.64052673
   0.50000118  0.50000475  0.64052509
   0.24996283  0.24999389  0.61143760
   0.24996404  0.75000511  0.61143709
   0.74996505  0.24999397  0.61143762
   0.74996600  0.75000386  0.61143724
   0.00000000  0.25000000  0.39583300
   0.00000000  0.75000000  0.39583300
   0.50000000  0.25000000  0.39583300
   0.50000000  0.75000000  0.39583300
   0.25000000  0.00000000  0.35416700
   0.25000000  0.50000000  0.35416700
   0.75000000  0.00000000  0.35416700
   0.75000000  0.50000000  0.35416700
   0.00000000  0.25000000  0.47916700
   0.00000000  0.75000000  0.47916700
   0.50000000  0.25000000  0.47916700
   0.50000000  0.75000000  0.47916700
   0.25000000  0.00000000  0.43750000
   0.25000000  0.50000000  0.43750000
   0.75000000  0.00000000  0.43750000
   0.75000000  0.50000000  0.43750000
   0.99999837  0.25000268  0.56146998
   0.00000712  0.75000381  0.56146930
   0.49999565  0.25000237  0.56146982
   0.50000463  0.75000405  0.56146899
   0.24986464  0.99999238  0.52058392
   0.24990997  0.49999392  0.52055740
   0.74991788  0.99999866  0.52058076
   0.74990698  0.49999414  0.52055713
   0.00030329  0.25000605  0.64648275
   0.00030753  0.75002008  0.64648195
   0.50030643  0.25000602  0.64648112
   0.50030488  0.75002015  0.64648046
   0.25000864  0.99999798  0.60530705
   0.25000840  0.49999871  0.60530530
   0.75000900  0.99999801  0.60530710
   0.75000940  0.49999861  0.60530535
 
 position of ions in cartesian coordinates  (Angst):
   0.00000000  0.00000000 13.97122934
  -0.00012400  4.13053200 13.97114784
   2.94131400  0.00000000 13.97104834
   2.94119000  4.13053200 13.97096684
   1.47059500  2.06526600 12.50046466
   1.47047100  6.19579800 12.50038316
   4.41190900  2.06526600 12.50028366
   4.41178500  6.19579800 12.50020216
   0.00000000  0.00000000 16.91256679
  -0.00012400  4.13053200 16.91248529
   2.94131400  0.00000000 16.91238579
   2.94119000  4.13053200 16.91230429
   1.47059500  2.06526600 15.44176681
   1.47047100  6.19579800 15.44168531
   4.41190900  2.06526600 15.44158581
   4.41178500  6.19579800 15.44150431
   0.00003911  0.00002291 19.74288048
  -0.00007714  4.13054684 19.74302267
   2.94135829  0.00002062 19.74267780
   2.94123987  4.13054385 19.74282484
   1.47038603  2.06525830 18.45351524
   1.47026442  6.19579404 18.45343262
   4.41169563  2.06525714 18.45333207
   4.41156961  6.19579491 18.45324877
  -0.00024516  8.26093555 22.60773376
  -0.00012072  4.13051064 22.60780656
   2.94106997  8.26092917 22.60753809
   2.94119693  4.13057126 22.60756178
   1.47037637  2.06521555 21.58102780
   1.47025944  6.19584021 21.58092817
   4.41170338  2.06521618 21.58084748
   4.41158500  6.19582987 21.58075277
  -0.00006200  2.06526600 13.97118859
  -0.00018600  6.19579800 13.97110709
   2.94125200  2.06526600 13.97100759
   2.94112800  6.19579800 13.97092609
   1.47065700  0.00000000 12.50050541
   1.47053300  4.13053200 12.50042391
   4.41197100  0.00000000 12.50032441
   4.41184700  4.13053200 12.50024291
  -0.00006200  2.06526600 16.91252604
  -0.00018600  6.19579800 16.91244454
   2.94125200  2.06526600 16.91234504
   2.94112800  6.19579800 16.91226354
   1.47065700  0.00000000 15.44180756
   1.47053300  4.13053200 15.44172606
   4.41197100  0.00000000 15.44162656
   4.41184700  4.13053200 15.44154506
   5.88255639  2.06528816 19.81711075
  -0.00014411  6.19582943 19.81736724
   2.94122638  2.06528556 19.81728629
   2.94115525  6.19583149 19.81717548
   1.46961271  8.26100105 18.37415522
   1.47000336  4.13048178 18.37330082
   4.41123991  8.26105289 18.37386284
   4.41129978  4.13048356 18.37311027
   0.00172215  2.06531596 22.81806376
   0.00162308  6.19596384 22.81795374
   2.94305459  2.06531573 22.81782511
   2.94292152  6.19596444 22.81772020
   1.47045984  8.26104730 21.36452307
   1.47058242  4.13052135 21.36454270
   4.41177594  8.26104753 21.36434376
   4.41190229  4.13052052 21.36436347
 


--------------------------------------------------------------------------------------------------------


 k-point   1 :   0.0000 0.0000 0.0000  plane waves:   43469
 k-point   2 :   0.1667 0.0000 0.0000  plane waves:   43502
 k-point   3 :   0.3333 0.0000 0.0000  plane waves:   43477
 k-point   4 :   0.5000 0.0000 0.0000  plane waves:   43432
 k-point   5 :   0.0000 0.2500 0.0000  plane waves:   43620
 k-point   6 :   0.1667 0.2500 0.0000  plane waves:   43549
 k-point   7 :   0.3333 0.2500 0.0000  plane waves:   43567
 k-point   8 :   0.5000 0.2500 0.0000  plane waves:   43526
 k-point   9 :  -0.3333 0.2500 0.0000  plane waves:   43565
 k-point  10 :  -0.1667 0.2500 0.0000  plane waves:   43550
 k-point  11 :   0.0000 0.5000 0.0000  plane waves:   43438
 k-point  12 :   0.1667 0.5000 0.0000  plane waves:   43573
 k-point  13 :   0.3333 0.5000 0.0000  plane waves:   43545
 k-point  14 :   0.5000 0.5000 0.0000  plane waves:   43630

 maximum and minimum number of plane-waves per node :     43630    43432

 maximum number of plane-waves:     43630
 maximum index in each direction: 
   IXMAX=   11   IYMAX=   15   IZMAX=   64
   IXMIN=  -11   IYMIN=  -15   IZMIN=  -64


 serial   3D FFT for wavefunctions
 parallel 3D FFT for charge:
    minimum data exchange during FFTs selected (reduces bandwidth)


 total amount of memory used by VASP MPI-rank0  1892379. kBytes
=======================================================================

   base      :      30000. kBytes
   nonlr-proj:      24290. kBytes
   fftplans  :      55426. kBytes
   grid      :     187084. kBytes
   one-center:       1990. kBytes
   wavefun   :    1593589. kBytes
 
     INWAV:  cpu time      4.1368: real time      4.3008
 Broyden mixing: mesh for mixing (old mesh)
   NGX = 21   NGY = 31   NGZ =129
  (NGX  = 96   NGY  =120   NGZ  =540)
  gives a total of  83979 points

 charge density for first step will be calculated from the start-wavefunctions


--------------------------------------------------------------------------------------------------------


 Maximum index for non-local projection operator          3577
 Maximum index for augmentation-charges          3813 (set IRDMAX)


--------------------------------------------------------------------------------------------------------


 initial charge from wavefunction
 First call to EWALD:  gamma=   0.148
 Maximum number of real-space cells 5x 4x 1
 Maximum number of reciprocal cells 2x 2x 7

    FEWALD:  cpu time      0.0051: real time      0.0051


--------------------------------------- Iteration      1(   1)  ---------------------------------------


    POTLOK:  cpu time      0.1411: real time      0.1745
    SETDIJ:  cpu time      5.6958: real time      5.6981
     EDDAV:  cpu time      9.6528: real time      9.6628
       DOS:  cpu time      0.0035: real time      0.0035
    CHARGE:  cpu time      0.4087: real time      0.4089
    MIXING:  cpu time      0.0133: real time      0.0133
    --------------------------------------------
      LOOP:  cpu time     15.9151: real time     15.9611

 eigenvalue-minimisations  : 22944
 total energy-change (2. order) :-0.5873412E+03  (-0.1236605E-02)
 number of electron     544.0000083 magnetization     -21.6893582
 augmentation part      197.8149517 magnetization     -13.4795970

 Broyden mixing:
  rms(total) = 0.97016E-01    rms(broyden)= 0.97010E-01
  rms(prec ) = 0.10972E+00
  weight for this iteration     100.00

 Free energy of the ion-electron system (eV)
  ---------------------------------------------------
  alpha Z        PSCENC =      1102.78832464
  Ewald energy   TEWEN  =    676469.29239970
  -Hartree energ DENC   =   -730113.05169161
  -exchange      EXHF   =         0.00000000
  -V(xc)+E(xc)   XCENC  =      2409.09420688
  PAW double counting   =     63753.15422622   -65395.95196875
  entropy T*S    EENTRO =         0.05612385
  eigenvalues    EBANDS =    -10011.00783503
  atomic energy  EATOM  =     61198.28506251
  Solvation  Ediel_sol  =         0.00000000
  ---------------------------------------------------
  free energy    TOTEN  =      -587.34115159 eV

  energy without entropy =     -587.39727544  energy(sigma->0) =     -587.35985954


--------------------------------------------------------------------------------------------------------




--------------------------------------- Iteration      1(   2)  ---------------------------------------


    POTLOK:  cpu time      0.0248: real time      0.0261
    SETDIJ:  cpu time      5.6958: real time      5.6982
    EDDIAG:  cpu time      0.8558: real time      0.8562
  RMM-DIIS:  cpu time      4.2539: real time      4.2562
    ORTHCH:  cpu time      0.3128: real time      0.3129
       DOS:  cpu time      0.0032: real time      0.0032
    CHARGE:  cpu time      0.4060: real time      0.4062
    MIXING:  cpu time      0.0165: real time      0.0205
    --------------------------------------------
      LOOP:  cpu time     11.5688: real time     11.5794

 eigenvalue-minimisations  : 19687
 total energy-change (2. order) :-0.5812168E+00  (-0.2448011E-01)
 number of electron     544.0000085 magnetization     -21.6824175
 augmentation part      197.8557479 magnetization     -14.4572386

 Broyden mixing:
  rms(total) = 0.10910E+01    rms(broyden)= 0.10909E+01
  rms(prec ) = 0.13142E+01
  weight for this iteration     100.00

 eigenvalues of (default mixing * dielectric matrix)
  average eigenvalue GAMMA=   0.0713
  0.0713

 Free energy of the ion-electron system (eV)
  ---------------------------------------------------
  alpha Z        PSCENC =      1102.78832464
  Ewald energy   TEWEN  =    676469.29239970
  -Hartree energ DENC   =   -730092.38223055
  -exchange      EXHF   =         0.00000000
  -V(xc)+E(xc)   XCENC  =      2409.06878905
  PAW double counting   =     63751.10773764   -65393.87171924
  entropy T*S    EENTRO =         0.07426789
  eigenvalues    EBANDS =    -10032.28500006
  atomic energy  EATOM  =     61198.28506251
  Solvation  Ediel_sol  =         0.00000000
  ---------------------------------------------------
  free energy    TOTEN  =      -587.92236840 eV

  energy without entropy =     -587.99663630  energy(sigma->0) =     -587.94712437


--------------------------------------------------------------------------------------------------------




--------------------------------------- Iteration      1(   3)  ---------------------------------------


    POTLOK:  cpu time      0.0248: real time      0.0258
    SETDIJ:  cpu time      5.6670: real time      5.6688
    EDDIAG:  cpu time      0.8583: real time      0.8591
  RMM-DIIS:  cpu time      3.8345: real time      3.8380
    ORTHCH:  cpu time      0.3130: real time      0.3137
       DOS:  cpu time      0.0036: real time      0.0036
    CHARGE:  cpu time      0.4084: real time      0.4086
    MIXING:  cpu time      0.0148: real time      0.0148
    --------------------------------------------
      LOOP:  cpu time     11.1244: real time     11.1324

 eigenvalue-minimisations  : 18161
 total energy-change (2. order) : 0.5339459E+00  (-0.9372312E-02)
 number of electron     544.0000084 magnetization     -21.6818591
 augmentation part      197.8595845 magnetization     -13.4708446

 Broyden mixing:
  rms(total) = 0.33659E+00    rms(broyden)= 0.33644E+00
  rms(prec ) = 0.37834E+00
  weight for this iteration     100.00

 eigenvalues of (default mixing * dielectric matrix)
  average eigenvalue GAMMA=   0.0951
  0.1322  0.0580

 Free energy of the ion-electron system (eV)
  ---------------------------------------------------
  alpha Z        PSCENC =      1102.78832464
  Ewald energy   TEWEN  =    676469.29239970
  -Hartree energ DENC   =   -730099.87732120
  -exchange      EXHF   =         0.00000000
  -V(xc)+E(xc)   XCENC  =      2409.04085321
  PAW double counting   =     63750.80449442   -65393.57179232
  entropy T*S    EENTRO =         0.06193185
  eigenvalues    EBANDS =    -10024.21237527
  atomic energy  EATOM  =     61198.28506251
  Solvation  Ediel_sol  =         0.00000000
  ---------------------------------------------------
  free energy    TOTEN  =      -587.38842246 eV

  energy without entropy =     -587.45035431  energy(sigma->0) =     -587.40906641


--------------------------------------------------------------------------------------------------------




--------------------------------------- Iteration      1(   4)  ---------------------------------------


    POTLOK:  cpu time      0.0249: real time      0.0256
    SETDIJ:  cpu time      5.7251: real time      5.7296
    EDDIAG:  cpu time      0.8575: real time      0.8581
  RMM-DIIS:  cpu time      3.8675: real time      3.8705
    ORTHCH:  cpu time      0.3110: real time      0.3112
       DOS:  cpu time      0.0033: real time      0.0033
    CHARGE:  cpu time      0.4061: real time      0.4063
    MIXING:  cpu time      0.0141: real time      0.0141
    --------------------------------------------
      LOOP:  cpu time     11.2095: real time     11.2187

 eigenvalue-minimisations  : 18147
 total energy-change (2. order) : 0.5196415E-01  (-0.2552270E-02)
 number of electron     544.0000084 magnetization     -21.6805624
 augmentation part      197.8357154 magnetization     -13.5984088

 Broyden mixing:
  rms(total) = 0.60570E-01    rms(broyden)= 0.60530E-01
  rms(prec ) = 0.64377E-01
  weight for this iteration     100.00

 eigenvalues of (default mixing * dielectric matrix)
  average eigenvalue GAMMA=   0.1359
  0.1755  0.1755  0.0567

 Free energy of the ion-electron system (eV)
  ---------------------------------------------------
  alpha Z        PSCENC =      1102.78832464
  Ewald energy   TEWEN  =    676469.29239970
  -Hartree energ DENC   =   -730107.84441975
  -exchange      EXHF   =         0.00000000
  -V(xc)+E(xc)   XCENC  =      2409.05633883
  PAW double counting   =     63752.20988667   -65394.99474936
  entropy T*S    EENTRO =         0.05942410
  eigenvalues    EBANDS =    -10016.18872565
  atomic energy  EATOM  =     61198.28506251
  Solvation  Ediel_sol  =         0.00000000
  ---------------------------------------------------
  free energy    TOTEN  =      -587.33645831 eV

  energy without entropy =     -587.39588241  energy(sigma->0) =     -587.35626634


--------------------------------------------------------------------------------------------------------




--------------------------------------- Iteration      1(   5)  ---------------------------------------


    POTLOK:  cpu time      0.0243: real time      0.0255
    SETDIJ:  cpu time      5.6659: real time      5.6675
    EDDIAG:  cpu time      0.8563: real time      0.8567
  RMM-DIIS:  cpu time      4.0522: real time      4.0539
    ORTHCH:  cpu time      0.3119: real time      0.3120
       DOS:  cpu time      0.0032: real time      0.0032
    CHARGE:  cpu time      0.4092: real time      0.4093
    MIXING:  cpu time      0.0142: real time      0.0142
    --------------------------------------------
      LOOP:  cpu time     11.3372: real time     11.3423

 eigenvalue-minimisations  : 18636
 total energy-change (2. order) : 0.4474645E-03  (-0.1103724E-02)
 number of electron     544.0000084 magnetization     -21.6799058
 augmentation part      197.8371703 magnetization     -13.5614227

 Broyden mixing:
  rms(total) = 0.34376E-01    rms(broyden)= 0.34366E-01
  rms(prec ) = 0.36908E-01
  weight for this iteration     100.00

 eigenvalues of (default mixing * dielectric matrix)
  average eigenvalue GAMMA=   0.1772
  0.2540  0.2540  0.0569  0.1436

 Free energy of the ion-electron system (eV)
  ---------------------------------------------------
  alpha Z        PSCENC =      1102.78832464
  Ewald energy   TEWEN  =    676469.29239970
  -Hartree energ DENC   =   -730107.28245941
  -exchange      EXHF   =         0.00000000
  -V(xc)+E(xc)   XCENC  =      2409.06206955
  PAW double counting   =     63752.17219128   -65394.96108884
  entropy T*S    EENTRO =         0.06200854
  eigenvalues    EBANDS =    -10016.75451881
  atomic energy  EATOM  =     61198.28506251
  Solvation  Ediel_sol  =         0.00000000
  ---------------------------------------------------
  free energy    TOTEN  =      -587.33601085 eV

  energy without entropy =     -587.39801938  energy(sigma->0) =     -587.35668036


--------------------------------------------------------------------------------------------------------




--------------------------------------- Iteration      1(   6)  ---------------------------------------


    POTLOK:  cpu time      0.0247: real time      0.0256
    SETDIJ:  cpu time      5.6753: real time      5.6774
    EDDIAG:  cpu time      0.8537: real time      0.8542
  RMM-DIIS:  cpu time      4.1374: real time      4.1394
    ORTHCH:  cpu time      0.3113: real time      0.3114
       DOS:  cpu time      0.0033: real time      0.0033
    CHARGE:  cpu time      0.4057: real time      0.4059
    MIXING:  cpu time      0.0147: real time      0.0147
    --------------------------------------------
      LOOP:  cpu time     11.4261: real time     11.4319

 eigenvalue-minimisations  : 18982
 total energy-change (2. order) : 0.1805229E-04  (-0.5095884E-03)
 number of electron     544.0000084 magnetization     -21.6797365
 augmentation part      197.8233013 magnetization     -13.5465694

 Broyden mixing:
  rms(total) = 0.21016E-01    rms(broyden)= 0.21010E-01
  rms(prec ) = 0.22444E-01
  weight for this iteration     100.00

 eigenvalues of (default mixing * dielectric matrix)
  average eigenvalue GAMMA=   0.2067
  0.3273  0.3273  0.0569  0.1611  0.1611

 Free energy of the ion-electron system (eV)
  ---------------------------------------------------
  alpha Z        PSCENC =      1102.78832464
  Ewald energy   TEWEN  =    676469.29239970
  -Hartree energ DENC   =   -730109.58564347
  -exchange      EXHF   =         0.00000000
  -V(xc)+E(xc)   XCENC  =      2409.06985855
  PAW double counting   =     63752.38741583   -65395.18341033
  entropy T*S    EENTRO =         0.05917333
  eigenvalues    EBANDS =    -10014.44917355
  atomic energy  EATOM  =     61198.28506251
  Solvation  Ediel_sol  =         0.00000000
  ---------------------------------------------------
  free energy    TOTEN  =      -587.33599279 eV

  energy without entropy =     -587.39516612  energy(sigma->0) =     -587.35571724


--------------------------------------------------------------------------------------------------------




--------------------------------------- Iteration      1(   7)  ---------------------------------------


    POTLOK:  cpu time      0.0249: real time      0.0259
    SETDIJ:  cpu time      5.6828: real time      5.6847
    EDDIAG:  cpu time      0.8524: real time      0.8528
  RMM-DIIS:  cpu time      3.6851: real time      3.6866
    ORTHCH:  cpu time      0.3109: real time      0.3110
       DOS:  cpu time      0.0033: real time      0.0033
    CHARGE:  cpu time      0.4050: real time      0.4052
    MIXING:  cpu time      0.0150: real time      0.0150
    --------------------------------------------
      LOOP:  cpu time     10.9794: real time     10.9843

 eigenvalue-minimisations  : 16808
 total energy-change (2. order) : 0.9649841E-04  (-0.1306504E-03)
 number of electron     544.0000084 magnetization     -21.6790861
 augmentation part      197.8257565 magnetization     -13.5524568

 Broyden mixing:
  rms(total) = 0.13849E-01    rms(broyden)= 0.13847E-01
  rms(prec ) = 0.14530E-01
  weight for this iteration     100.00

 eigenvalues of (default mixing * dielectric matrix)
  average eigenvalue GAMMA=   0.2393
  0.4275  0.4275  0.0569  0.1937  0.1937  0.1364

 Free energy of the ion-electron system (eV)
  ---------------------------------------------------
  alpha Z        PSCENC =      1102.78832464
  Ewald energy   TEWEN  =    676469.29239970
  -Hartree energ DENC   =   -730108.59342502
  -exchange      EXHF   =         0.00000000
  -V(xc)+E(xc)   XCENC  =      2409.06782869
  PAW double counting   =     63752.15379378   -65394.94419744
  entropy T*S    EENTRO =         0.06009165
  eigenvalues    EBANDS =    -10015.44577480
  atomic energy  EATOM  =     61198.28506251
  Solvation  Ediel_sol  =         0.00000000
  ---------------------------------------------------
  free energy    TOTEN  =      -587.33589630 eV

  energy without entropy =     -587.39598794  energy(sigma->0) =     -587.35592684


--------------------------------------------------------------------------------------------------------




--------------------------------------- Iteration      1(   8)  ---------------------------------------


    POTLOK:  cpu time      0.0246: real time      0.0259
    SETDIJ:  cpu time      5.6731: real time      5.6750
    EDDIAG:  cpu time      0.8542: real time      0.8545
  RMM-DIIS:  cpu time      2.8526: real time      2.8543
    ORTHCH:  cpu time      0.3113: real time      0.3114
       DOS:  cpu time      0.0033: real time      0.0033
    CHARGE:  cpu time      0.4064: real time      0.4066
    MIXING:  cpu time      0.0157: real time      0.0157
    --------------------------------------------
      LOOP:  cpu time     10.1413: real time     10.1466

 eigenvalue-minimisations  : 12516
 total energy-change (2. order) : 0.1313500E-03  (-0.3099652E-04)
 number of electron     544.0000084 magnetization     -21.6786530
 augmentation part      197.8263794 magnetization     -13.5507356

 Broyden mixing:
  rms(total) = 0.64597E-02    rms(broyden)= 0.64588E-02
  rms(prec ) = 0.68445E-02
  weight for this iteration     100.00

 eigenvalues of (default mixing * dielectric matrix)
  average eigenvalue GAMMA=   0.2740
  0.5451  0.5451  0.0569  0.2335  0.2335  0.1609  0.1428

 Free energy of the ion-electron system (eV)
  ---------------------------------------------------
  alpha Z        PSCENC =      1102.78832464
  Ewald energy   TEWEN  =    676469.29239970
  -Hartree energ DENC   =   -730108.47825439
  -exchange      EXHF   =         0.00000000
  -V(xc)+E(xc)   XCENC  =      2409.06906263
  PAW double counting   =     63751.97027836   -65394.75446297
  entropy T*S    EENTRO =         0.06005142
  eigenvalues    EBANDS =    -10015.56822685
  atomic energy  EATOM  =     61198.28506251
  Solvation  Ediel_sol  =         0.00000000
  ---------------------------------------------------
  free energy    TOTEN  =      -587.33576495 eV

  energy without entropy =     -587.39581637  energy(sigma->0) =     -587.35578209


--------------------------------------------------------------------------------------------------------




--------------------------------------- Iteration      1(   9)  ---------------------------------------


    POTLOK:  cpu time      0.0245: real time      0.0256
    SETDIJ:  cpu time      5.7247: real time      5.7285
    EDDIAG:  cpu time      0.8542: real time      0.8547
  RMM-DIIS:  cpu time      2.4116: real time      2.4133
    ORTHCH:  cpu time      0.3124: real time      0.3125
       DOS:  cpu time      0.0036: real time      0.0037
    --------------------------------------------
      LOOP:  cpu time      9.3311: real time      9.3383

 eigenvalue-minimisations  : 10170
 total energy-change (2. order) : 0.4257134E-04  (-0.6992931E-05)
 number of electron     544.0000084 magnetization     -21.6786530
 augmentation part      197.8263794 magnetization     -13.5507356

 Free energy of the ion-electron system (eV)
  ---------------------------------------------------
  alpha Z        PSCENC =      1102.78832464
  Ewald energy   TEWEN  =    676469.29239970
  -Hartree energ DENC   =   -730108.28921585
  -exchange      EXHF   =         0.00000000
  -V(xc)+E(xc)   XCENC  =      2409.07005825
  PAW double counting   =     63751.82944666   -65394.61060058
  entropy T*S    EENTRO =         0.06026567
  eigenvalues    EBANDS =    -10015.76146338
  atomic energy  EATOM  =     61198.28506251
  Solvation  Ediel_sol  =         0.00000000
  ---------------------------------------------------
  free energy    TOTEN  =      -587.33572237 eV

  energy without entropy =     -587.39598804  energy(sigma->0) =     -587.35581093


--------------------------------------------------------------------------------------------------------




 average (electrostatic) potential at core
  the test charge radii are     1.0025  0.7089
  (the norm of the test charge is              1.0000)
       1 -76.5167       2 -76.5187       3 -76.5167       4 -76.5188       5 -76.3452
       6 -76.3452       7 -76.3452       8 -76.3452       9 -76.4285      10 -76.4278
      11 -76.4286      12 -76.4279      13 -76.4825      14 -76.4825      15 -76.4825
      16 -76.4825      17 -76.4382      18 -76.4370      19 -76.4382      20 -76.4368
      21 -76.3211      22 -76.3211      23 -76.3211      24 -76.3212      25 -76.4734
      26 -76.4735      27 -76.4743      28 -76.4746      29 -76.4255      30 -76.4256
      31 -76.4254      32 -76.4256      33 -69.0917      34 -69.0917      35 -69.0917
      36 -69.0918      37 -68.1347      38 -68.1350      39 -68.1347      40 -68.1350
      41 -68.5948      42 -68.5948      43 -68.5950      44 -68.5950      45 -68.7727
      46 -68.7723      47 -68.7728      48 -68.7723      49 -68.5079      50 -68.5080
      51 -68.5079      52 -68.5079      53 -68.9638      54 -68.9620      55 -68.9638
      56 -68.9620      57 -68.3103      58 -68.3107      59 -68.3121      60 -68.3126
      61 -69.3301      62 -69.3306      63 -69.3301      64 -69.3306
 
 
 
 E-fermi :   0.4619     XC(G=0):  -4.9804     alpha+bet : -5.8709

 Fermi energy:         0.4619346239

 spin component 1

 k-point     1 :       0.0000    0.0000    0.0000
  band No.  band energies     occupation 
      1     -44.0338      1.00000
      2     -44.0298      1.00000
      3     -44.0220      1.00000
      4     -44.0156      1.00000
      5     -43.9857      1.00000
      6     -43.9844      1.00000
      7     -43.9675      1.00000
      8     -43.9653      1.00000
      9     -43.9466      1.00000
     10     -43.9451      1.00000
     11     -43.9442      1.00000
     12     -43.9403      1.00000
     13     -43.9326      1.00000
     14     -43.9248      1.00000
     15     -43.9086      1.00000
     16     -43.9067      1.00000
     17     -43.8877      1.00000
     18     -43.8875      1.00000
     19     -43.8793      1.00000
     20     -43.8765      1.00000
     21     -43.8711      1.00000
     22     -43.8673      1.00000
     23     -43.8551      1.00000
     24     -43.8544      1.00000
     25     -43.8308      1.00000
     26     -43.8282      1.00000
     27     -43.8096      1.00000
     28     -43.8080      1.00000
     29     -43.7740      1.00000
     30     -43.7732      1.00000
     31     -43.7703      1.00000
     32     -43.7675      1.00000
     33     -43.7500      1.00000
     34     -43.7484      1.00000
     35     -43.7337      1.00000
     36     -43.7321      1.00000
     37     -41.8758      1.00000
     38     -41.8676      1.00000
     39     -41.7808      1.00000
     40     -41.7707      1.00000
     41     -41.7663      1.00000
     42     -41.7626      1.00000
     43     -41.7442      1.00000
     44     -41.7397      1.00000
     45     -41.7250      1.00000
     46     -41.7233      1.00000
     47     -41.6955      1.00000
     48     -41.6937      1.00000
     49     -41.6894      1.00000
     50     -41.6893      1.00000
     51     -41.6774      1.00000
     52     -41.6748      1.00000
     53     -41.6687      1.00000
     54     -41.6671      1.00000
     55     -41.6662      1.00000
     56     -41.6660      1.00000
     57     -41.6652      1.00000
     58     -41.6539      1.00000
     59     -41.6201      1.00000
     60     -41.6131      1.00000
     61     -41.6100      1.00000
     62     -41.6072      1.00000
     63     -41.6061      1.00000
     64     -41.6039      1.00000
     65     -41.6005      1.00000
     66     -41.5975      1.00000
     67     -41.5836      1.00000
     68     -41.5827      1.00000
     69     -41.5501      1.00000
     70     -41.5468      1.00000
     71     -41.5450      1.00000
     72     -41.5447      1.00000
     73     -41.5428      1.00000
     74     -41.5417      1.00000
     75     -41.5342      1.00000
     76     -41.5313      1.00000
     77     -41.5258      1.00000
     78     -41.5258      1.00000
     79     -41.5249      1.00000
     80     -41.5238      1.00000
     81     -41.4840      1.00000
     82     -41.4810      1.00000
     83     -41.4640      1.00000
     84     -41.4630      1.00000
     85     -41.3077      1.00000
     86     -41.3053      1.00000
     87     -41.3042      1.00000
     88     -41.2993      1.00000
     89     -41.1778      1.00000
     90     -41.1733      1.00000
     91     -41.0504      1.00000
     92     -41.0493      1.00000
     93     -41.0352      1.00000
     94     -41.0299      1.00000
     95     -41.0185      1.00000
     96     -41.0165      1.00000
     97     -16.5586      1.00000
     98     -16.1166      1.00000
     99     -15.5353      1.00000
    100     -15.5224      1.00000
    101     -15.3121      1.00000
    102     -15.1168      1.00000
    103     -15.0844      1.00000
    104     -14.8798      1.00000
    105     -14.8509      1.00000
    106     -14.8358      1.00000
    107     -14.7254      1.00000
    108     -14.7071      1.00000
    109     -14.6271      1.00000
    110     -14.6168      1.00000
    111     -14.5346      1.00000
    112     -14.4701      1.00000
    113     -14.4657      1.00000
    114     -14.4415      1.00000
    115     -14.3110      1.00000
    116     -14.2979      1.00000
    117     -14.2702      1.00000
    118     -14.1986      1.00000
    119     -14.0543      1.00000
    120     -14.0119      1.00000
    121     -13.8464      1.00000
    122     -13.7509      1.00000
    123     -13.7258      1.00000
    124     -13.6788      1.00000
    125     -13.4583      1.00000
    126     -13.3796      1.00000
    127     -13.3403      1.00000
    128     -12.9628      1.00000
    129      -7.4043      1.00000
    130      -7.2990      1.00000
    131      -7.2402      1.00000
    132      -7.2024      1.00000
    133      -6.8086      1.00000
    134      -6.6734      1.00000
    135      -6.4015      1.00000
    136      -6.3972      1.00000
    137      -6.2810      1.00000
    138      -6.2024      1.00000
    139      -6.1178      1.00000
    140      -6.0975      1.00000
    141      -5.9348      1.00000
    142      -5.8984      1.00000
    143      -5.8546      1.00000
    144      -5.7915      1.00000
    145      -5.7560      1.00000
    146      -5.7207      1.00000
    147      -5.6591      1.00000
    148      -5.5885      1.00000
    149      -5.5562      1.00000
    150      -5.4260      1.00000
    151      -5.3594      1.00000
    152      -5.1405      1.00000
    153      -5.1184      1.00000
    154      -5.1098      1.00000
    155      -5.0616      1.00000
    156      -5.0179      1.00000
    157      -4.9134      1.00000
    158      -4.8775      1.00000
    159      -4.8656      1.00000
    160      -4.7675      1.00000
    161      -4.7438      1.00000
    162      -4.7408      1.00000
    163      -4.7375      1.00000
    164      -4.7189      1.00000
    165      -4.7043      1.00000
    166      -4.5833      1.00000
    167      -4.5746      1.00000
    168      -4.5622      1.00000
    169      -4.5606      1.00000
    170      -4.5184      1.00000
    171      -4.3973      1.00000
    172      -4.3948      1.00000
    173      -4.3934      1.00000
    174      -4.3821      1.00000
    175      -4.2893      1.00000
    176      -4.2771      1.00000
    177      -4.2768      1.00000
    178      -4.2044      1.00000
    179      -4.2020      1.00000
    180      -4.2001      1.00000
    181      -4.1843      1.00000
    182      -4.1784      1.00000
    183      -4.1602      1.00000
    184      -4.1123      1.00000
    185      -4.0961      1.00000
    186      -3.9827      1.00000
    187      -3.9262      1.00000
    188      -3.8835      1.00000
    189      -3.8736      1.00000
    190      -3.8662      1.00000
    191      -3.8299      1.00000
    192      -3.8260      1.00000
    193      -3.7313      1.00000
    194      -3.6910      1.00000
    195      -3.6795      1.00000
    196      -3.6497      1.00000
    197      -3.6469      1.00000
    198      -3.5728      1.00000
    199      -3.5219      1.00000
    200      -3.4702      1.00000
    201      -3.4073      1.00000
    202      -3.2136      1.00000
    203      -3.1964      1.00000
    204      -3.1555      1.00000
    205      -3.0323      1.00000
    206      -2.8753      1.00000
    207      -2.8583      1.00000
    208      -2.7050      1.00000
    209      -2.6981      1.00000
    210      -2.6864      1.00000
    211      -2.6691      1.00000
    212      -2.6043      1.00000
    213      -2.5717      1.00000
    214      -2.5387      1.00000
    215      -2.5112      1.00000
    216      -2.3094      1.00000
    217      -2.2616      1.00000
    218      -2.1677      1.00000
    219      -2.1012      1.00000
    220      -1.9590      1.00000
    221      -1.9294      1.00000
    222      -1.7941      1.00000
    223      -1.7372      1.00000
    224      -1.5665      1.00000
    225      -1.4922      1.00000
    226      -1.4502      1.00000
    227      -1.2170      1.00000
    228      -1.1665      1.00000
    229      -1.1449      1.00000
    230      -1.1119      1.00000
    231      -1.0686      1.00000
    232      -0.8994      1.00000
    233      -0.8936      1.00000
    234      -0.7256      1.00000
    235      -0.6355      1.00000
    236      -0.5111      1.00000
    237      -0.3717      1.00000
    238      -0.3666      1.00000
    239      -0.3435      1.00000
    240      -0.1469      1.00007
    241      -0.1121      1.00019
    242      -0.1111      1.00019
    243      -0.0637      1.00064
    244       0.0015      1.00268
    245       0.0383      1.00536
    246       0.0462      1.00615
    247       0.1137      1.01678
    248       0.1343      1.02130
    249       0.1354      1.02157
    250       0.1378      1.02211
    251       0.1447      1.02370
    252       0.1648      1.02829
    253       0.2090      1.03522
    254       0.2185      1.03545
    255       0.2292      1.03483
    256       0.2538      1.02885
    257       0.2656      1.02311
    258       0.3239      0.95638
    259       0.4076      0.72081
    260       0.4177      0.68211
    261       0.4487      0.55575
    262       0.5319      0.22299
    263       0.5799      0.08453
    264       0.5970      0.04912
    265       0.6198      0.01279
    266       0.9967     -0.00051
    267       1.0777     -0.00006
    268       1.0778     -0.00006
    269       1.0829     -0.00005
    270       1.1128     -0.00002
    271       1.2027     -0.00000
    272       1.2120     -0.00000
    273       1.2660     -0.00000
    274       1.3482     -0.00000
    275       1.4004     -0.00000
    276       1.4471     -0.00000
    277       1.4630     -0.00000
    278       1.4968     -0.00000
    279       1.5545     -0.00000
    280       1.5988     -0.00000
    281       1.6564     -0.00000
    282       1.6862     -0.00000
    283       1.6895     -0.00000
    284       1.7259     -0.00000
    285       1.7350     -0.00000
    286       1.7409     -0.00000
    287       1.7668     -0.00000
    288       1.9224     -0.00000
    289       1.9524     -0.00000
    290       1.9576     -0.00000
    291       1.9819     -0.00000
    292       1.9895     -0.00000
    293       2.0437     -0.00000
    294       2.0530     -0.00000
    295       2.0923     -0.00000
    296       2.1022     -0.00000
    297       2.1075     -0.00000
    298       2.1479     -0.00000
    299       2.1720     -0.00000
    300       2.1837     -0.00000
    301       2.1985     -0.00000
    302       2.2312     -0.00000
    303       2.2401     -0.00000
    304       2.2859     -0.00000
    305       2.3281     -0.00000
    306       2.3409     -0.00000
    307       2.3452     -0.00000
    308       2.3601     -0.00000
    309       2.3807     -0.00000
    310       2.4155     -0.00000
    311       2.4479     -0.00000
    312       2.4678     -0.00000
    313       2.5090     -0.00000
    314       2.5229     -0.00000
    315       2.5289     -0.00000
    316       2.5544     -0.00000
    317       2.6074     -0.00000
    318       2.6521     -0.00000
    319       2.6646     -0.00000
    320       2.6741     -0.00000

 k-point     2 :       0.1667    0.0000    0.0000
  band No.  band energies     occupation 
      1     -44.0330      1.00000
      2     -44.0289      1.00000
      3     -44.0228      1.00000
      4     -44.0166      1.00000
      5     -43.9770      1.00000
      6     -43.9758      1.00000
      7     -43.9660      1.00000
      8     -43.9640      1.00000
      9     -43.9478      1.00000
     10     -43.9466      1.00000
     11     -43.9434      1.00000
     12     -43.9393      1.00000
     13     -43.9334      1.00000
     14     -43.9258      1.00000
     15     -43.8997      1.00000
     16     -43.8979      1.00000
     17     -43.8871      1.00000
     18     -43.8862      1.00000
     19     -43.8798      1.00000
     20     -43.8687      1.00000
     21     -43.8671      1.00000
     22     -43.8638      1.00000
     23     -43.8633      1.00000
     24     -43.8621      1.00000
     25     -43.8294      1.00000
     26     -43.8270      1.00000
     27     -43.8108      1.00000
     28     -43.8095      1.00000
     29     -43.7830      1.00000
     30     -43.7823      1.00000
     31     -43.7695      1.00000
     32     -43.7666      1.00000
     33     -43.7511      1.00000
     34     -43.7497      1.00000
     35     -43.7427      1.00000
     36     -43.7412      1.00000
     37     -41.8658      1.00000
     38     -41.8582      1.00000
     39     -41.7796      1.00000
     40     -41.7705      1.00000
     41     -41.7665      1.00000
     42     -41.7638      1.00000
     43     -41.7347      1.00000
[...]
  296            m_sumb_d                              0.025491                       54   5
  297        setdij_                               0.160422                            9   3
  298          m_sumb_d                              0.004687                          9   4
  299        set_dd_magatom                        0.000036                            9   3
  300        set_dd_paw                           51.403543                            9   3
  301          m_sumb_d                              0.018881                         63   4
  302        fft3d_mpi                             0.069582                          198   3
  303          fftbrc_mpi                            0.057817                        198   4
  304            fftbas_plan_mpi                       0.057719                      198   5
  305              map_forward                           0.026079                    180   6
  306                map_gather                            0.004161                   90   7
  307                m_alltoallv_z                         0.001394                   90   7
  308                map_scatter                           0.018369                   90   7
  309              map_backward                          0.025481                    216   6
  310                map_gather                            0.004756                  108   7
  311                m_alltoallv_z                         0.001452                  108   7
  312                map_scatter                           0.015728                  108   7
  313        m_sumb_d                              0.000329                           45   3
  314        forhar                                0.070195                           18   3
  315          m_sumb_d                              0.000543                         18   4
  316        chggra                                0.016288                            9   3
  317          fft3d_mpi                             0.009735                         27   4
  318            fftbrc_mpi                            0.008010                       27   5
  319              fftbas_plan_mpi                       0.007996                     27   6
  320                map_forward                           0.005237                   36   7
  321                  map_gather                            0.000792                 18   8
  322                  m_alltoallv_z                         0.000268                 18   8
  323                  map_scatter                           0.003753                 18   8
  324                map_backward                          0.001920                   18   7
  325                  map_gather                            0.000393                  9   8
  326                  m_alltoallv_z                         0.000123                  9   8
  327                  map_scatter                           0.001112                  9   8
  328          m_sumb_d                              0.000085                         18   4
  329          pothar                                0.001140                          9   4
  330            m_sumb_d                              0.000132                        9   5
  331        brmix                                 0.175501                            9   3
  332          m_sumb_d                              0.002194                         54   4
  333          brpre                                 0.001094                         18   4
  334          setg0                                 0.065420                          9   4
  335          broyd                                 0.042283                          9   4
  336            m_sumb_d                              0.004292                      154   5
  337            brget                                 0.012505                      536   5
  338            brsav                                 0.003380                      138   5
  339        m_bcast_d                             0.000471                           18   3
  340      potlok                                0.139786                              9   2
  341        fft3d_mpi                             0.079832                          234   3
  342          fftbrc_mpi                            0.063964                        234   4
  343            fftbas_plan_mpi                       0.063845                      234   5
  344              map_forward                           0.030503                    252   6
  345                map_gather                            0.005816                  144   7
  346                m_alltoallv_z                         0.002002                  144   7
  347                map_scatter                           0.020075                  144   7
  348              map_backward                          0.025085                    216   6
  349                map_gather                            0.004766                  108   7
  350                m_alltoallv_z                         0.001439                  108   7
  351                map_scatter                           0.015314                  108   7
  352        m_sumb_d                              0.000314                           45   3
  353        pothar                                0.001304                            9   3
  354          m_sumb_d                              0.000104                          9   4
  355        m_bcast_d                             0.000247                           18   3
  356      potlok_metagga                        0.000000                              9   2
  357      set_dd_magatom                        0.000034                              9   2
  358      set_dd_paw                           51.022159                              9   2
  359        m_sumb_d                              0.079184                           63   3
  360      m_sumb_d                              4.273950                           8979   2
  361      wavpre_noio                           3.195929                              8   2
  362        stufak                                1.186818                            8   3
  363      densta                                0.043710                              1   2
  364        m_sumb_d                              0.002060                           41   3
 
 Flat profile
 ============
 
             routine name                   CPU           calls
 ---------------------------------------------------------------
 set_dd_paw                            668.812296         118
 eccp                                   72.957083      688774
 redis_pw                               36.050168      247448
 m_sumb_d                               30.783574      127403
 raccmu_                                30.776930      116515
 i2                                     28.347374       81849
 hamilt_local                           23.878241      203840
 fft3d                                  23.466147     1717321
 eddiag                                 18.516820          91
 m_alltoall_d                           18.121044     2848524
 eddav                                  17.945687           9
 eccp_nl                                17.489642      464774
 hamiltmu                               17.007517      116515
 total_time                             16.832748           1
 phaser                                 16.156434        3304
 fftwav                                 15.780951     1123737
 cnorma                                 15.742896      464774
 lapack                                 14.631927       34666
 pw_charge                              13.844840      226240
 eddrmm                                 13.176825          91
 init_acc                               12.833014           1
 w1_gemv                                12.389859      508966
 soft_charge                             9.230485         101
 setup_precond                           7.857887      224000
 rpromu_acc                              7.480462      126595
 w1_copy                                 6.042057     1169232
 newband                                 5.675119      119315
 w1_dot                                  5.012559      174101
 rpro_isp                                4.686587         504
 redis_proj                              4.580926      253556
 overl1                                  4.123914      254483
 racc0mu_acc                             3.970256      116515
 w1_dscal                                3.858102      640389
 w1_daxpy                                3.491511      581346
 depsum                                  3.306149         101
 setdij_                                 3.046705         173
 orth1                                   2.981725      157478
 elmin                                   2.662526           9
 orthch                                  2.661922         100
 kinhamil                                2.508684      593584
 vhamil                                  2.505866      593584
 acc_init_cublas                         2.485115           1
 apply_precond                           2.434806      525788
 proall                                  2.373182           9
 fftext_mpi                              2.320019      593584
 wavpre_noio                             2.009111           8
 augmentation_charge                     1.971316         101
 overl_mu                                1.830126      116515
 choleski                                1.723773        2800
 potlok                                  1.589056         109
 w1_gaxpy                                1.449364      302515
 fftwav_mpi                              1.448553     1123737
 m_bcast_z                               1.437655       43628
 stufak                                  1.336349           9
 dfftw_execute                           1.332159        1239
 sphpro_fast                             1.303988          10
 fft3d_mpi                               1.135844      597056
 force_and_stress                        1.126417           9
 overl                                   1.027939      123852
 acc_init_cusolver                       0.943216           1
 zhegv                                   0.867977      116572
 m_alltoallv_z                           0.856834        3892
 map_scatter                             0.773282        3892
 i3                                      0.759734       81849
 brmix                                   0.690603         100
 rspher_all                              0.687128          37
 ggemm                                   0.612226       44746
 m_bcast_d                               0.584076       69588
 setg0                                   0.565623         118
 map_gather                              0.488289        3892
 lincom                                  0.342040        5600
 densta                                  0.324895         101
 fftbas_plan_mpi                         0.161443        3472
 broyd                                   0.152154         100
 set_charge                              0.134392         101
 acc_cufft_makeplan                      0.124129          19
 w1_projall                              0.100406      106435
 i1                                      0.097242       81849
 brget                                   0.090895        4041
 forhar                                  0.069653          18
 map_backward                            0.048025        3658
 truncate_high_frequency_w1              0.046404      613744
 fft_gq                                  0.044270         101
 fornlr                                  0.042032           9
 rsp                                     0.040600           9
 forloc                                  0.034654           9
 map_forward                             0.034482        3286
 brsav                                   0.026100        1154
 pothar                                  0.015501         118
 brpre                                   0.011928         200
 chggra                                  0.005327           9
 fftbrc_mpi                              0.001892        3472
 fordep                                  0.001067           9
 rcp                                     0.000925           9
 brgrid                                  0.000909           1
 fewald                                  0.000491           9
 set_dd_magatom                          0.000474         118
 vectorpot                               0.000438         101
 shift_bands_between_low_high            0.000347        2548
 crpa_reader                             0.000027           1
 acc_cufft_makeplans                     0.000018           3
 potlok_metagga                          0.000013         109
 rotate_active_occupied_orbital          0.000002           9
 redis_pw_over_bands                     0.000001           9
 ---------------------------------------------------------------
  summed up times     1261.342398881912     
 
 Accumulative profile
 ====================
 
             routine name                   CPU           calls
 ---------------------------------------------------------------
 total_time                           1261.342399           1
 elmin                                1072.304038           9
 set_dd_paw                            669.371378         118
 eddrmm                                270.790392          91
 i3                                     89.479896       81849
 eddav                                  82.696752           9
 eddiag                                 77.778611          91
 eccp                                   72.957083      688774
 force_and_stress                       70.301926           9
 hamiltmu                               61.254486      116515
 i2                                     58.713916       81849
 set_charge                             54.551106         101
 newband                                47.305160      119315
 soft_charge                            46.923474         101
 redis_pw                               45.220498      247448
 fftwav_mpi                             36.893003     1123737
 raccmu_                                36.577312      116515
 fftwav                                 35.444450     1123737
 orthch                                 33.704993         100
 cnorma                                 33.232538      464774
 m_sumb_d                               30.783574      127403
 hamilt_local                           27.515602      203840
 fft3d                                  23.466147     1717321
 m_alltoall_d                           18.121044     2848524
 eccp_nl                                17.489642      464774
 w1_gemv                                16.513774      508966
 phaser                                 16.156434        3304
 lapack                                 14.631927       34666
 pw_charge                              13.844840      226240
 redis_proj                             13.531640      253556
 init_acc                               12.833014           1
 fornlr                                 12.628119           9
 rpro_isp                               12.015851         504
 kinhamil                                8.801152      593584
 fft3d_mpi                               8.634898      597056
 setup_precond                           7.857887      224000
 rpromu_acc                              7.480462      126595
 fftext_mpi                              6.292468      593584
 w1_copy                                 6.042057     1169232
 w1_dot                                  5.012559      174101
 proall                                  4.869202           9
 augmentation_charge                     4.161435         101
 overl1                                  4.123914      254483
 racc0mu_acc                             3.970256      116515
 w1_dscal                                3.858102      640389
 fftbrc_mpi                              3.696406        3472
 fftbas_plan_mpi                         3.694514        3472
 w1_projall                              3.521046      106435
 w1_daxpy                                3.491511      581346
 depsum                                  3.331804         101
 wavpre_noio                             3.195929           8
 setdij_                                 3.130702         173
 orth1                                   2.981725      157478
 potlok                                  2.708644         109
 vhamil                                  2.505866      593584
 acc_init_cublas                         2.485115           1
 apply_precond                           2.434806      525788
 overl_mu                                1.830126      116515
 choleski                                1.723773        2800
 map_backward                            1.610558        3658
 brmix                                   1.597111         100
 i1                                      1.516052       81849
 w1_gaxpy                                1.449364      302515
 m_bcast_z                               1.437655       43628
 stufak                                  1.336349           9
 dfftw_execute                           1.332159        1239
 sphpro_fast                             1.331501          10
 fft_gq                                  1.218198         101
 overl                                   1.027939      123852
 fordep                                  0.964631           9
 acc_init_cusolver                       0.943216           1
 zhegv                                   0.867977      116572
 m_alltoallv_z                           0.856834        3892
 map_scatter                             0.773282        3892
 rspher_all                              0.687128          37
 ggemm                                   0.612226       44746
 map_forward                             0.590353        3286
 m_bcast_d                               0.584076       69588
 setg0                                   0.565623         118
 map_gather                              0.488289        3892
 densta                                  0.353388         101
 lincom                                  0.342040        5600
 broyd                                   0.306595         100
 acc_cufft_makeplans                     0.124147           3
 acc_cufft_makeplan                      0.124129          19
 brget                                   0.090895        4041
 forhar                                  0.070195          18
 truncate_high_frequency_w1              0.046404      613744
 fewald                                  0.043956           9
 rsp                                     0.040600           9
 forloc                                  0.036125           9
 brsav                                   0.026100        1154
 pothar                                  0.017335         118
 chggra                                  0.016288           9
 brpre                                   0.011928         200
 rcp                                     0.000925           9
 brgrid                                  0.000909           1
 set_dd_magatom                          0.000474         118
 vectorpot                               0.000438         101
 shift_bands_between_low_high            0.000347        2548
 crpa_reader                             0.000027           1
 potlok_metagga                          0.000013         109
 rotate_active_occupied_orbital          0.000002           9
 redis_pw_over_bands                     0.000001           9
 ---------------------------------------------------------------
 
Profiling took   1.858965  1.377356  0.003337  0.003237 seconds
Profiling took   1.540101 seconds
