 vasp.6.3.2 27Jun22 (build Jul  3 2023 11:46:21) complex                         
 executed on    LinuxNV_CrayMPICH date 2024.04.22  03:06:02
 running on    4 total cores
 distrk:  each k-point on    4 cores,    1 groups
 distr:  one band on NCORE=   1 cores,    4 groups


--------------------------------------------------------------------------------------------------------


 INCAR:
   ADDGRID = True
   ALGO = Fast
   EDIFF = 5e-05
   ENCUT = 520.0
   IBRION = -1
   ISIF = 3
   ISMEAR = -5
   ISPIN = 2
   LAECHG = True
   LASPH = True
   LCHARG = True
   LORBIT = 11
   LREAL = Auto
   LVHAR = True
   LWAVE = False
   MAGMOM = 2*7.0 4*5.0
   NELM = 1000
   NSW = 0
   PREC = Accurate
   SIGMA = 0.05

 POTCAR:    PAW_PBE Gd 23Dec2003                  
 POTCAR:    PAW_PBE Co 02Aug2007                  
 POTCAR:    PAW_PBE Gd 23Dec2003                  
   SHA256 =  58854b40b4643190560b0e2b62d2ab46bea96585f82c6231a0f4f44b8c3188dc Gd/POTCAR             
   COPYR  = (c) Copyright 23Dec2003 Georg Kresse                                                    
   COPYR  = This file is part of the software VASP. Any use, copying, and all other rights are regul
   COPYR  = If you do not have a valid VASP license, you may not use, copy or distribute this file. 
   VRHFIN =Gd : [core=Xe4]                                                                          
   LEXCH  = PE                                                                                      
   EATOM  =  3047.6032 eV,  223.9925 Ry                                                             
                                                                                                    
   TITEL  = PAW_PBE Gd 23Dec2003                                                                    
   LULTRA =        F    use ultrasoft PP ?                                                          
   IUNSCR =        1    unscreen: 0-lin 1-nonlin 2-no                                               
   RPACOR =    2.300    partial core radius                                                         
   POMASS =  157.250; ZVAL   =   18.000    mass and valenz                                          
   RCORE  =    2.800    outmost cutoff radius                                                       
   RWIGS  =    2.800; RWIGS  =    1.482    wigner-seitz radius (au A)                               
   ENMAX  =  256.472; ENMIN  =  192.354 eV                                                          
   RCLOC  =    2.316    cutoff for local pot                                                        
   LCOR   =        T    correct aug charges                                                         
   LPAW   =        T    paw PP                                                                      
   EAUG   =  537.243                                                                                
   DEXC   =    0.000                                                                                
   RMAX   =    2.857    core radius for proj-oper                                                   
   RAUG   =    1.300    factor for augmentation sphere                                              
   RDEP   =    2.921    radius for radial grids                                                     
   RDEPT  =    2.247    core radius for aug-charge                                                  
                                                                                                    
   Atomic configuration                                                                             
   14 entries                                                                                       
     n  l   j            E        occ.                                                              
     1  0  0.50    -50087.2354   2.0000                                                             
     2  0  0.50     -8269.2182   2.0000                                                             
     2  1  1.50     -7357.3672   6.0000                                                             
     3  0  0.50     -1833.2681   2.0000                                                             
     3  1  1.50     -1550.9376   6.0000                                                             
     3  2  2.50     -1178.7204  10.0000                                                             
     4  0  0.50      -369.2978   2.0000                                                             
     4  1  1.50      -276.2601   6.0000                                                             
     4  2  2.50      -147.6611  10.0000                                                             
     5  0  0.50       -49.7260   2.0000                                                             
     6  0  0.50        -4.1254   2.0000                                                             
     5  1  1.50       -27.2538   6.0000                                                             
     5  2  2.50        -2.5337   1.0000                                                             
     4  3  2.50        -8.7140   7.0000                                                             
   Description                                                                                      
     l       E           TYP  RCUT    TYP  RCUT                                                     
     0    -49.7259557     23  2.400                                                                 
     0     -4.1254107     23  2.400                                                                 
     1    -27.2537518     23  2.400                                                                 
     1     20.4087390     23  2.400                                                                 
     2     -2.5337329     23  2.500                                                                 
     2     13.6058260     23  2.500                                                                 
     3     -8.7140389     23  2.800                                                                 
     3     -9.5240782     23  2.800                                                                 
  local pseudopotential read in
  partial core-charges read in
  partial kinetic energy density read in
  atomic valenz-charges read in
  non local Contribution for L=            0  read in
    real space projection operators read in
  non local Contribution for L=            0  read in
    real space projection operators read in
  non local Contribution for L=            1  read in
    real space projection operators read in
  non local Contribution for L=            1  read in
    real space projection operators read in
  non local Contribution for L=            2  read in
    real space projection operators read in
  non local Contribution for L=            2  read in
    real space projection operators read in
  non local Contribution for L=            3  read in
    real space projection operators read in
  non local Contribution for L=            3  read in
    real space projection operators read in
    PAW grid and wavefunctions read in
 
   number of l-projection  operators is LMAX  =            8
   number of lm-projection operators is LMMAX =           32
 
 POTCAR:    PAW_PBE Co 02Aug2007                  
   SHA256 =  0e690c60710354995174544f52f9f2c30879afabeffe3b3fbd4001cb294e56d4 Co/POTCAR             
   COPYR  = (c) Copyright 02Aug2007 Georg Kresse                                                    
   COPYR  = This file is part of the software VASP. Any use, copying, and all other rights are regul
   COPYR  = If you do not have a valid VASP license, you may not use, copy or distribute this file. 
   VRHFIN =Co: d8 s1                                                                                
   LEXCH  = PE                                                                                      
   EATOM  =   813.3670 eV,   59.7808 Ry                                                             
                                                                                                    
   TITEL  = PAW_PBE Co 02Aug2007                                                                    
   LULTRA =        F    use ultrasoft PP ?                                                          
   IUNSCR =        1    unscreen: 0-lin 1-nonlin 2-no                                               
   RPACOR =    2.000    partial core radius                                                         
   POMASS =   58.933; ZVAL   =    9.000    mass and valenz                                          
   RCORE  =    2.300    outmost cutoff radius                                                       
   RWIGS  =    2.460; RWIGS  =    1.302    wigner-seitz radius (au A)                               
   ENMAX  =  267.968; ENMIN  =  200.976 eV                                                          
   RCLOC  =    1.203    cutoff for local pot                                                        
   LCOR   =        T    correct aug charges                                                         
   LPAW   =        T    paw PP                                                                      
   EAUG   =  477.818                                                                                
   DEXC   =    0.000                                                                                
   RMAX   =    2.360    core radius for proj-oper                                                   
   RAUG   =    1.300    factor for augmentation sphere                                              
   RDEP   =    2.393    radius for radial grids                                                     
   RDEPT  =    1.864    core radius for aug-charge                                                  
                                                                                                    
   Atomic configuration                                                                             
    9 entries                                                                                       
     n  l   j            E        occ.                                                              
     1  0  0.50     -7587.6674   2.0000                                                             
     2  0  0.50      -893.6084   2.0000                                                             
     2  1  1.50      -764.5805   6.0000                                                             
     3  0  0.50       -97.5973   2.0000                                                             
     3  1  1.50       -60.9648   6.0000                                                             
     3  2  2.50        -4.2382   8.0000                                                             
     4  0  0.50        -4.3746   1.0000                                                             
     4  1  1.50        -4.0817   0.0000                                                             
     4  3  2.50        -1.3606   0.0000                                                             
   Description                                                                                      
     l       E           TYP  RCUT    TYP  RCUT                                                     
     2     -4.2382362     23  2.300                                                                 
     2     -5.5988188     23  2.300                                                                 
     0     -4.3745797     23  2.300                                                                 
     0      5.7660125     23  2.300                                                                 
     1     -2.7211652     23  2.300                                                                 
     1     16.9860234     23  2.300                                                                 
  local pseudopotential read in
  partial core-charges read in
  partial kinetic energy density read in
  atomic valenz-charges read in
  non local Contribution for L=            2  read in
    real space projection operators read in
  non local Contribution for L=            2  read in
    real space projection operators read in
  non local Contribution for L=            0  read in
    real space projection operators read in
  non local Contribution for L=            0  read in
    real space projection operators read in
  non local Contribution for L=            1  read in
    real space projection operators read in
  non local Contribution for L=            1  read in
    real space projection operators read in
    PAW grid and wavefunctions read in
 
   number of l-projection  operators is LMAX  =            6
   number of lm-projection operators is LMMAX =           18
 
 -----------------------------------------------------------------------------
|                                                                             |
|               ----> ADVICE to this user running VASP <----                  |
|                                                                             |
|     You have a (more or less) 'small supercell' and for smaller cells       |
|     it is recommended to use the reciprocal-space projection scheme!        |
|     The real-space optimization is not efficient for small cells and it     |
|     is also less accurate ...                                               |
|     Therefore, set LREAL=.FALSE. in the INCAR file.                         |
|                                                                             |
 -----------------------------------------------------------------------------

 Optimization of the real space projectors (new method)

 maximal supplied QI-value         = 13.42
 optimisation between [QCUT,QGAM] = [ 11.67, 23.35] = [ 38.16,152.62] Ry 
 Optimized for a Real-space Cutoff    1.63 Angstroem

   l    n(q)    QCUT    max X(q) W(low)/X(q) W(high)/X(q)  e(spline) 
   0     11    11.673    10.501    0.14E-04    0.17E-05    0.21E-07
   0     11    11.673     9.148    0.21E-04    0.32E-05    0.45E-07
   1     11    11.673     4.035    0.33E-05    0.11E-04    0.84E-07
   1     11    11.673     4.388    0.11E-04    0.47E-04    0.34E-06
   2     10    11.673    20.656    0.12E-04    0.28E-04    0.54E-06
   2     10    11.673    12.651    0.11E-04    0.26E-04    0.51E-06
   3     10    11.673    61.921    0.19E-03    0.22E-03    0.23E-06
   3     10    11.673    48.328    0.20E-03    0.23E-03    0.23E-06
 Optimization of the real space projectors (new method)

 maximal supplied QI-value         = 16.25
 optimisation between [QCUT,QGAM] = [ 11.54, 23.24] = [ 37.28,151.24] Ry 
 Optimized for a Real-space Cutoff    1.45 Angstroem

   l    n(q)    QCUT    max X(q) W(low)/X(q) W(high)/X(q)  e(spline) 
   2      9    11.539    65.824    0.19E-03    0.47E-04    0.16E-06
   2      9    11.539    61.429    0.20E-03    0.48E-04    0.16E-06
   0     10    11.539    56.174    0.76E-04    0.45E-04    0.23E-06
   0     10    11.539    31.263    0.69E-04    0.41E-04    0.21E-06
   1     10    11.539    19.828    0.78E-04    0.14E-03    0.70E-07
   1     10    11.539    15.139    0.65E-04    0.12E-03    0.64E-07
  PAW_PBE Gd 23Dec2003                  :
 energy of atom  1       EATOM=-3047.6032
 kinetic energy error for atom=    0.0019 (will be added to EATOM!!)
  PAW_PBE Co 02Aug2007                  :
 energy of atom  2       EATOM= -813.3670
 kinetic energy error for atom=    0.0028 (will be added to EATOM!!)
 
 
 POSCAR: Gd2 Co4
  positions in direct lattice
  No initial velocities read in
 exchange correlation table for  LEXCH =        8
   RHO(1)=    0.500       N(1)  =     2000
   RHO(2)=  100.500       N(2)  =     4000

 VTST: version 4.2, (08/11/21)

 CHAIN: initializing optimizer
 
 OPT: Using VASP Dynamics algorithm
 CHAIN: Read ICHAIN             0
 
 POSCAR: Gd2 Co4
  positions in direct lattice
  No initial velocities read in
 


--------------------------------------------------------------------------------------------------------


 ion  position               nearest neighbor table
   1  0.250  0.250  0.250-   3 3.00   3 3.00   4 3.00   4 3.00   5 3.00   6 3.00   3 3.00   5 3.00
                             6 3.00   4 3.00   5 3.00   6 3.00   2 3.13   2 3.13   2 3.13   2 3.13
   2  0.000  0.000  0.000-   3 3.00   4 3.00   3 3.00   6 3.00   5 3.00   6 3.00   4 3.00   5 3.00
                             6 3.00   3 3.00   4 3.00   5 3.00   1 3.13   1 3.13   1 3.13   1 3.13
   3  0.625  0.625  0.125-   6 2.56   4 2.56   5 2.56   6 2.56   4 2.56   5 2.56   2 3.00   1 3.00
                             2 3.00   1 3.00   1 3.00   2 3.00
   4  0.625  0.125  0.625-   6 2.56   3 2.56   3 2.56   5 2.56   6 2.56   5 2.56   2 3.00   1 3.00
                             1 3.00   2 3.00   1 3.00   2 3.00
   5  0.125  0.625  0.625-   6 2.56   3 2.56   4 2.56   3 2.56   4 2.56   6 2.56   1 3.00   2 3.00
                             1 3.00   2 3.00   1 3.00   2 3.00
   6  0.625  0.625  0.625-   3 2.56   4 2.56   5 2.56   3 2.56   4 2.56   5 2.56   2 3.00   1 3.00
                             2 3.00   1 3.00   2 3.00   1 3.00
 
  LATTYP: Found a face centered cubic cell.
 ALAT       =     7.2352960000
  
  Lattice vectors:
  
 A1 = (   0.0000000000,   3.6176480000,   3.6176480000)
 A2 = (   3.6176480000,   0.0000000000,   3.6176480000)
 A3 = (   3.6176480000,   3.6176480000,   0.0000000000)


Analysis of symmetry for initial positions (statically):
=====================================================================
 Subroutine PRICEL returns:
 Original cell was already a primitive cell.
 

 Routine SETGRP: Setting up the symmetry group for a 
 face centered cubic supercell.


 Subroutine GETGRP returns: Found 48 space group operations
 (whereof 24 operations were pure point group operations)
 out of a pool of 48 trial point group operations.


The static configuration has the point symmetry T_d .
 The point group associated with its full space group is O_h .


Analysis of symmetry for dynamics (positions and initial velocities):
=====================================================================
 Subroutine PRICEL returns:
 Original cell was already a primitive cell.
 

 Routine SETGRP: Setting up the symmetry group for a 
 face centered cubic supercell.


 Subroutine GETGRP returns: Found 48 space group operations
 (whereof 24 operations were pure point group operations)
 out of a pool of 48 trial point group operations.


The dynamic configuration has the point symmetry T_d .
 The point group associated with its full space group is O_h .


Analysis of structural, dynamic, and magnetic symmetry:
=====================================================================
 Subroutine PRICEL returns:
 Original cell was already a primitive cell.
 

 Routine SETGRP: Setting up the symmetry group for a 
 face centered cubic supercell.


 Subroutine GETGRP returns: Found 48 space group operations
 (whereof 24 operations were pure point group operations)
 out of a pool of 48 trial point group operations.


The overall configuration has the point symmetry T_d .
 The point group associated with its full space group is O_h .


 Subroutine INISYM returns: Found 48 space group operations
 (whereof 24 operations are pure point group operations),
 and found     1 'primitive' translations


----------------------------------------------------------------------------------------

                                     Primitive cell                                     

  volume of cell :      94.6910

  direct lattice vectors                    reciprocal lattice vectors
     0.000000000  3.617648000  3.617648000    -0.138211346  0.138211346  0.138211346
     3.617648000  0.000000000  3.617648000     0.138211346 -0.138211346  0.138211346
     3.617648000  3.617648000  0.000000000     0.138211346  0.138211346 -0.138211346

  length of vectors
     5.116126865  5.116126865  5.116126865     0.239389074  0.239389074  0.239389074

  position of ions in fractional coordinates (direct lattice)
     0.250000000  0.250000000  0.250000000
     0.000000000  0.000000000  0.000000000
     0.625000000  0.625000000  0.125000000
     0.625000000  0.125000000  0.625000000
     0.125000000  0.625000000  0.625000000
     0.625000000  0.625000000  0.625000000

  ion indices of the primitive-cell ions
   primitive index   ion index
                 1           1
                 2           2
                 3           3
                 4           4
                 5           5
                 6           6

----------------------------------------------------------------------------------------

 
 
 KPOINTS: Kpoints from vasprun.xml                

Automatic generation of k-mesh.
 Grid dimensions read from file:
 generate k-points for:    6    6    6

 Generating k-lattice:

  Cartesian coordinates                     Fractional coordinates (reciprocal lattice)
    -0.023035224  0.023035224  0.023035224     0.166666667  0.000000000  0.000000000
     0.023035224 -0.023035224  0.023035224     0.000000000  0.166666667 -0.000000000
     0.023035224  0.023035224 -0.023035224    -0.000000000 -0.000000000  0.166666667

  Length of vectors
     0.039898179  0.039898179  0.039898179

  Shift w.r.t. Gamma in fractional coordinates (k-lattice)
     0.500000000  0.500000000  0.500000000

 TETIRR: Found    403 inequivalent tetrahedra from     5184
 
 Subroutine IBZKPT returns following result:
 ===========================================
 
 Found     28 irreducible k-points:
 
 Following reciprocal coordinates:
            Coordinates               Weight
  0.083333  0.083333  0.083333      8.000000
  0.250000  0.083333  0.083333     24.000000
  0.416667  0.083333  0.083333     24.000000
 -0.416667  0.083333  0.083333     24.000000
 -0.250000  0.083333  0.083333     24.000000
 -0.083333  0.083333  0.083333     24.000000
  0.250000  0.250000  0.083333     24.000000
  0.416667  0.250000  0.083333     48.000000
 -0.416667  0.250000  0.083333     48.000000
 -0.250000  0.250000  0.083333     48.000000
 -0.083333  0.250000  0.083333     48.000000
  0.416667  0.416667  0.083333     24.000000
 -0.416667  0.416667  0.083333     48.000000
 -0.250000  0.416667  0.083333     48.000000
 -0.083333  0.416667  0.083333     48.000000
 -0.416667 -0.416667  0.083333     24.000000
 -0.250000 -0.416667  0.083333     48.000000
 -0.250000 -0.250000  0.083333     24.000000
  0.250000  0.250000  0.250000      8.000000
  0.416667  0.250000  0.250000     24.000000
 -0.416667  0.250000  0.250000     24.000000
 -0.250000  0.250000  0.250000     24.000000
  0.416667  0.416667  0.250000     24.000000
 -0.416667  0.416667  0.250000     48.000000
 -0.250000  0.416667  0.250000     48.000000
 -0.416667 -0.416667  0.250000     24.000000
  0.416667  0.416667  0.416667      8.000000
 -0.416667  0.416667  0.416667     24.000000
 
 Following cartesian coordinates:
            Coordinates               Weight
  0.011518  0.011518  0.011518      8.000000
 -0.011518  0.034553  0.034553     24.000000
 -0.034553  0.057588  0.057588     24.000000
  0.080623 -0.057588 -0.057588     24.000000
  0.057588 -0.034553 -0.034553     24.000000
  0.034553 -0.011518 -0.011518     24.000000
  0.011518  0.011518  0.057588     24.000000
 -0.011518  0.034553  0.080623     48.000000
  0.103659 -0.080623 -0.034553     48.000000
  0.080623 -0.057588 -0.011518     48.000000
  0.057588 -0.034553  0.011518     48.000000
  0.011518  0.011518  0.103659     24.000000
  0.126694 -0.103659 -0.011518     48.000000
  0.103659 -0.080623  0.011518     48.000000
  0.080623 -0.057588  0.034553     48.000000
  0.011518  0.011518 -0.126694     24.000000
 -0.011518  0.034553 -0.103659     48.000000
  0.011518  0.011518 -0.080623     24.000000
  0.034553  0.034553  0.034553      8.000000
  0.011518  0.057588  0.057588     24.000000
  0.126694 -0.057588 -0.057588     24.000000
  0.103659 -0.034553 -0.034553     24.000000
  0.034553  0.034553  0.080623     24.000000
  0.149729 -0.080623 -0.034553     48.000000
  0.126694 -0.057588 -0.011518     48.000000
  0.034553  0.034553 -0.149729     24.000000
  0.057588  0.057588  0.057588      8.000000
  0.172764 -0.057588 -0.057588     24.000000
 


--------------------------------------------------------------------------------------------------------




 Dimension of arrays:
   k-points           NKPTS =     28   k-points in BZ     NKDIM =     28   number of bands    NBANDS=     60
   number of dos      NEDOS =    301   number of ions     NIONS =      6
   non local maximal  LDIM  =      8   non local SUM 2l+1 LMDIM =     32
   total plane-waves  NPLWV =  64000
   max r-space proj   IRMAX =  12248   max aug-charges    IRDMAX= 320024
   dimension x,y,z NGX =    40 NGY =   40 NGZ =   40
   dimension x,y,z NGXF=    80 NGYF=   80 NGZF=   80
   support grid    NGXF=   160 NGYF=  160 NGZF=  160
   ions per type =               2   4
   NGX,Y,Z   is equivalent  to a cutoff of  13.00, 13.00, 13.00 a.u.
   NGXF,Y,Z  is equivalent  to a cutoff of  26.00, 26.00, 26.00 a.u.

 SYSTEM =  unknown system                          
 POSCAR =  Gd2 Co4                                 

 Startparameter for this run:
   NWRITE =      2    write-flag & timer
   PREC   = accura    normal or accurate (medium, high low for compatibility)
   ISTART =      0    job   : 0-new  1-cont  2-samecut
   ICHARG =      2    charge: 1-file 2-atom 10-const
   ISPIN  =      2    spin polarized calculation?
   LNONCOLLINEAR =      F non collinear calculations
   LSORBIT =      F    spin-orbit coupling
   INIWAV =      1    electr: 0-lowe 1-rand  2-diag
   LASPH  =      T    aspherical Exc in radial PAW
 Electronic Relaxation 1
   ENCUT  =  520.0 eV  38.22 Ry    6.18 a.u.   9.51  9.51  9.51*2*pi/ulx,y,z
   ENINI  =  520.0     initial cutoff
   ENAUG  =  537.2 eV  augmentation charge cutoff
   NELM   =   1000;   NELMIN=  2; NELMDL= -5     # of ELM steps 
   EDIFF  = 0.5E-04   stopping-criterion for ELM
   LREAL  =      T    real-space projection
   NLSPLINE    = F    spline interpolate recip. space projectors
   LCOMPAT=      F    compatible to vasp.4.4
   GGA_COMPAT  = T    GGA compatible to vasp.4.4-vasp.4.6
   LMAXPAW     = -100 max onsite density
   LMAXMIX     =    2 max onsite mixed and CHGCAR
   VOSKOWN=      0    Vosko Wilk Nusair interpolation
   ROPT   =   -0.00025  -0.00025
 Ionic relaxation
   EDIFFG = 0.5E-03   stopping-criterion for IOM
   NSW    =      0    number of steps for IOM
   NBLOCK =      1;   KBLOCK =      1    inner block; outer block 
   IBRION =     -1    ionic relax: 0-MD 1-quasi-New 2-CG
   NFREE  =      0    steps in history (QN), initial steepest desc. (CG)
   ISIF   =      3    stress and relaxation
   IWAVPR =     10    prediction:  0-non 1-charg 2-wave 3-comb
   ISYM   =      2    0-nonsym 1-usesym 2-fastsym
   LCORR  =      T    Harris-Foulkes like correction to forces

   POTIM  = 0.5000    time-step for ionic-motion
   TEIN   =    0.0    initial temperature
   TEBEG  =    0.0;   TEEND  =   0.0 temperature during run
   SMASS  =  -3.00    Nose mass-parameter (am)
   estimated Nose-frequenzy (Omega)   =  0.10E-29 period in steps = 0.13E+47 mass=  -0.598E-27a.u.
   SCALEE = 1.0000    scale energy and forces
   NPACO  =    256;   APACO  = 10.0  distance and # of slots for P.C.
   PSTRESS=    0.0 pullay stress

  Mass of Ions in am
   POMASS = 157.25 58.93
  Ionic Valenz
   ZVAL   =  18.00  9.00
  Atomic Wigner-Seitz radii
   RWIGS  =  -1.00 -1.00
  virtual crystal weights 
   VCA    =   1.00  1.00
   NELECT =      72.0000    total number of electrons
   NUPDOWN=      -1.0000    fix difference up-down

 DOS related values:
   EMIN   =  10.00;   EMAX   =-10.00  energy-range for DOS
   EFERMI =   0.00
   ISMEAR =    -5;   SIGMA  =   0.05  broadening in eV -4-tet -1-fermi 0-gaus

 Electronic relaxation 2 (details)
   IALGO  =     68    algorithm
   LDIAG  =      T    sub-space diagonalisation (order eigenvalues)
   LSUBROT=      F    optimize rotation matrix (better conditioning)
   TURBO    =      0    0=normal 1=particle mesh
   IRESTART =      0    0=no restart 2=restart with 2 vectors
   NREBOOT  =      0    no. of reboots
   NMIN     =      0    reboot dimension
   EREF     =   0.00    reference energy to select bands
   IMIX   =      4    mixing-type and parameters
     AMIX     =   0.40;   BMIX     =  1.00
     AMIX_MAG =   1.60;   BMIX_MAG =  1.00
     AMIN     =   0.10
     WC   =   100.;   INIMIX=   1;  MIXPRE=   1;  MAXMIX= -45

 Intra band minimization:
   WEIMIN = 0.0000     energy-eigenvalue tresh-hold
   EBREAK =  0.21E-06  absolut break condition
   DEPER  =   0.30     relativ break condition  

   TIME   =   0.40     timestep for ELM

  volume/ion in A,a.u.               =      15.78       106.50
  Fermi-wavevector in a.u.,A,eV,Ry     =   1.494225  2.823676 30.377845  2.232709
  Thomas-Fermi vector in A             =   2.606525
 
 Write flags
   LWAVE        =      F    write WAVECAR
   LDOWNSAMPLE  =      F    k-point downsampling of WAVECAR
   LCHARG       =      T    write CHGCAR
   LVTOT        =      F    write LOCPOT, total local potential
   LVHAR        =      T    write LOCPOT, Hartree potential only
   LELF         =      F    write electronic localiz. function (ELF)
   LORBIT       =     11    0 simple, 1 ext, 2 COOP (PROOUT), +10 PAW based schemes


 Dipole corrections
   LMONO  =      F    monopole corrections only (constant potential shift)
   LDIPOL =      F    correct potential (dipole corrections)
   IDIPOL =      0    1-x, 2-y, 3-z, 4-all directions 
   EPSILON=  1.0000000 bulk dielectric constant

 Exchange correlation treatment:
   GGA     =    --    GGA type
   LEXCH   =     8    internal setting for exchange type
   LIBXC   =     F    Libxc                    
   VOSKOWN =     0    Vosko Wilk Nusair interpolation
   LHFCALC =     F    Hartree Fock is set to
   LHFONE  =     F    Hartree Fock one center treatment
   AEXX    =    0.0000 exact exchange contribution

 Linear response parameters
   LEPSILON=     F    determine dielectric tensor
   LRPA    =     F    only Hartree local field effects (RPA)
   LNABLA  =     F    use nabla operator in PAW spheres
   LVEL    =     F    velocity operator in full k-point grid
   CSHIFT  =0.1000    complex shift for real part using Kramers Kronig
   OMEGAMAX=  -1.0    maximum frequency
   DEG_THRESHOLD= 0.2000000E-02 threshold for treating states as degnerate
   RTIME   =   -0.100 relaxation time in fs
  (WPLASMAI=    0.000 imaginary part of plasma frequency in eV, 0.658/RTIME)
   DFIELD  = 0.0000000 0.0000000 0.0000000 field for delta impulse in time
 
  Optional k-point grid parameters
   LKPOINTS_OPT  =     F    use optional k-point grid
   KPOINTS_OPT_MODE=     1    mode for optional k-point grid
 
 Orbital magnetization related:
   ORBITALMAG=     F  switch on orbital magnetization
   LCHIMAG   =     F  perturbation theory with respect to B field
   DQ        =  0.001000  dq finite difference perturbation B field
   LLRAUG    =     F  two centre corrections for induced B field



--------------------------------------------------------------------------------------------------------


 Static calculation
 charge density and potential will be updated during run
 spin polarized calculation
 RMM-DIIS sequential band-by-band and
  variant of blocked Davidson during initial phase
 perform sub-space diagonalisation
    before iterative eigenvector-optimisation
 modified Broyden-mixing scheme, WC =      100.0
 initial mixing is a Kerker type mixing with AMIX =  0.4000 and BMIX =      1.0000
 Hartree-type preconditioning will be used
 using additional bands            24
 real space projection scheme for non local part
 use partial core corrections
 calculate Harris-corrections to forces 
   (improved forces if not selfconsistent)
 use gradient corrections 
 use of overlap-Matrix (Vanderbilt PP)
 Fermi weights with tetrahedron method with Bloechl corrections


--------------------------------------------------------------------------------------------------------


  energy-cutoff  :      520.00
  volume of cell :       94.69
      direct lattice vectors                 reciprocal lattice vectors
     0.000000000  3.617648000  3.617648000    -0.138211346  0.138211346  0.138211346
     3.617648000  0.000000000  3.617648000     0.138211346 -0.138211346  0.138211346
     3.617648000  3.617648000  0.000000000     0.138211346  0.138211346 -0.138211346

  length of vectors
     5.116126865  5.116126865  5.116126865     0.239389074  0.239389074  0.239389074


 
 k-points in units of 2pi/SCALE and weight: Kpoints from vasprun.xml                
   0.01151761  0.01151761  0.01151761       0.009
  -0.01151761  0.03455284  0.03455284       0.028
  -0.03455284  0.05758806  0.05758806       0.028
   0.08062329 -0.05758806 -0.05758806       0.028
   0.05758806 -0.03455284 -0.03455284       0.028
   0.03455284 -0.01151761 -0.01151761       0.028
   0.01151761  0.01151761  0.05758806       0.028
  -0.01151761  0.03455284  0.08062329       0.056
   0.10365851 -0.08062329 -0.03455284       0.056
   0.08062329 -0.05758806 -0.01151761       0.056
   0.05758806 -0.03455284  0.01151761       0.056
   0.01151761  0.01151761  0.10365851       0.028
   0.12669373 -0.10365851 -0.01151761       0.056
   0.10365851 -0.08062329  0.01151761       0.056
   0.08062329 -0.05758806  0.03455284       0.056
   0.01151761  0.01151761 -0.12669373       0.028
  -0.01151761  0.03455284 -0.10365851       0.056
   0.01151761  0.01151761 -0.08062329       0.028
   0.03455284  0.03455284  0.03455284       0.009
   0.01151761  0.05758806  0.05758806       0.028
   0.12669373 -0.05758806 -0.05758806       0.028
   0.10365851 -0.03455284 -0.03455284       0.028
   0.03455284  0.03455284  0.08062329       0.028
   0.14972896 -0.08062329 -0.03455284       0.056
   0.12669373 -0.05758806 -0.01151761       0.056
   0.03455284  0.03455284 -0.14972896       0.028
   0.05758806  0.05758806  0.05758806       0.009
   0.17276418 -0.05758806 -0.05758806       0.028
 
 k-points in reciprocal lattice and weights: Kpoints from vasprun.xml                
   0.08333333  0.08333333  0.08333333       0.009
   0.25000000  0.08333333  0.08333333       0.028
   0.41666667  0.08333333  0.08333333       0.028
  -0.41666667  0.08333333  0.08333333       0.028
  -0.25000000  0.08333333  0.08333333       0.028
  -0.08333333  0.08333333  0.08333333       0.028
   0.25000000  0.25000000  0.08333333       0.028
   0.41666667  0.25000000  0.08333333       0.056
  -0.41666667  0.25000000  0.08333333       0.056
  -0.25000000  0.25000000  0.08333333       0.056
  -0.08333333  0.25000000  0.08333333       0.056
   0.41666667  0.41666667  0.08333333       0.028
  -0.41666667  0.41666667  0.08333333       0.056
  -0.25000000  0.41666667  0.08333333       0.056
  -0.08333333  0.41666667  0.08333333       0.056
  -0.41666667 -0.41666667  0.08333333       0.028
  -0.25000000 -0.41666667  0.08333333       0.056
  -0.25000000 -0.25000000  0.08333333       0.028
   0.25000000  0.25000000  0.25000000       0.009
   0.41666667  0.25000000  0.25000000       0.028
  -0.41666667  0.25000000  0.25000000       0.028
  -0.25000000  0.25000000  0.25000000       0.028
   0.41666667  0.41666667  0.25000000       0.028
  -0.41666667  0.41666667  0.25000000       0.056
  -0.25000000  0.41666667  0.25000000       0.056
  -0.41666667 -0.41666667  0.25000000       0.028
   0.41666667  0.41666667  0.41666667       0.009
  -0.41666667  0.41666667  0.41666667       0.028
 
 position of ions in fractional coordinates (direct lattice) 
   0.25000000  0.25000000  0.25000000
   0.00000000  0.00000000  0.00000000
   0.62500000  0.62500000  0.12500000
   0.62500000  0.12500000  0.62500000
   0.12500000  0.62500000  0.62500000
   0.62500000  0.62500000  0.62500000
 
 position of ions in cartesian coordinates  (Angst):
   1.80882400  1.80882400  1.80882400
   0.00000000  0.00000000  0.00000000
   2.71323600  2.71323600  4.52206000
   2.71323600  4.52206000  2.71323600
   4.52206000  2.71323600  2.71323600
   4.52206000  4.52206000  4.52206000
 


--------------------------------------------------------------------------------------------------------


 k-point   1 :   0.0833 0.0833 0.0833  plane waves:    2586
 k-point   2 :   0.2500 0.0833 0.0833  plane waves:    2576
 k-point   3 :   0.4167 0.0833 0.0833  plane waves:    2546
 k-point   4 :  -0.4167 0.0833 0.0833  plane waves:    2537
 k-point   5 :  -0.2500 0.0833 0.0833  plane waves:    2547
 k-point   6 :  -0.0833 0.0833 0.0833  plane waves:    2571
 k-point   7 :   0.2500 0.2500 0.0833  plane waves:    2562
 k-point   8 :   0.4167 0.2500 0.0833  plane waves:    2549
 k-point   9 :  -0.4167 0.2500 0.0833  plane waves:    2554
 k-point  10 :  -0.2500 0.2500 0.0833  plane waves:    2550
 k-point  11 :  -0.0833 0.2500 0.0833  plane waves:    2556
 k-point  12 :   0.4167 0.4167 0.0833  plane waves:    2544
 k-point  13 :  -0.4167 0.4167 0.0833  plane waves:    2547
 k-point  14 :  -0.2500 0.4167 0.0833  plane waves:    2548
 k-point  15 :  -0.0833 0.4167 0.0833  plane waves:    2542
 k-point  16 :  -0.4167-0.4167 0.0833  plane waves:    2533
 k-point  17 :  -0.2500-0.4167 0.0833  plane waves:    2546
 k-point  18 :  -0.2500-0.2500 0.0833  plane waves:    2552
 k-point  19 :   0.2500 0.2500 0.2500  plane waves:    2563
 k-point  20 :   0.4167 0.2500 0.2500  plane waves:    2558
 k-point  21 :  -0.4167 0.2500 0.2500  plane waves:    2551
 k-point  22 :  -0.2500 0.2500 0.2500  plane waves:    2546
 k-point  23 :   0.4167 0.4167 0.2500  plane waves:    2543
 k-point  24 :  -0.4167 0.4167 0.2500  plane waves:    2545
 k-point  25 :  -0.2500 0.4167 0.2500  plane waves:    2544
 k-point  26 :  -0.4167-0.4167 0.2500  plane waves:    2561
 k-point  27 :   0.4167 0.4167 0.4167  plane waves:    2548
 k-point  28 :  -0.4167 0.4167 0.4167  plane waves:    2547

 maximum and minimum number of plane-waves per node :      2586     2533

 maximum number of plane-waves:      2586
 maximum index in each direction: 
   IXMAX=    9   IYMAX=    9   IZMAX=    9
   IXMIN=   -9   IYMIN=   -9   IZMIN=   -9


 serial   3D FFT for wavefunctions
 parallel 3D FFT for charge:
    minimum data exchange during FFTs selected (reduces bandwidth)


 total amount of memory used by VASP MPI-rank0   115208. kBytes
=======================================================================

   base      :      30000. kBytes
   nonlr-proj:      13240. kBytes
   fftplans  :      19153. kBytes
   grid      :      15616. kBytes
   one-center:        589. kBytes
   wavefun   :      36610. kBytes
 
     INWAV:  cpu time      0.0001: real time      0.0003
 Broyden mixing: mesh for mixing (old mesh)
   NGX = 19   NGY = 19   NGZ = 19
  (NGX  = 80   NGY  = 80   NGZ  = 80)
  gives a total of   6859 points

 initial charge density was supplied:
 charge density of overlapping atoms calculated
 number of electron      72.0000000 magnetization      34.0000000
 keeping initial charge density in first step


--------------------------------------------------------------------------------------------------------


 Maximum index for non-local projection operator         11849
 Maximum index for augmentation-charges         77719 (set IRDMAX)


--------------------------------------------------------------------------------------------------------


 First call to EWALD:  gamma=   0.389
 Maximum number of real-space cells 3x 3x 3
 Maximum number of reciprocal cells 3x 3x 3

    FEWALD:  cpu time      0.0043: real time      0.0043


--------------------------------------- Iteration      1(   1)  ---------------------------------------


    POTLOK:  cpu time      0.0939: real time      0.1484
    SETDIJ:  cpu time      1.5006: real time      1.5012
     EDDAV:  cpu time      3.7946: real time      3.8007
 BZINTS: Fermi energy:   19.312007;   72.000000 electrons
         Band energy: 0.604366E+03;  BLOECHL correction:   -0.320776
       DOS:  cpu time      0.2420: real time      0.2421
    --------------------------------------------
      LOOP:  cpu time      5.6312: real time      5.6926

 eigenvalue-minimisations  :  9200
 total energy-change (2. order) : 0.5595473E+03  (-0.2735107E+04)
 number of electron      72.0000000 magnetization      34.0000000
 augmentation part       72.0000000 magnetization      34.0000000

 Free energy of the ion-electron system (eV)
  ---------------------------------------------------
  alpha Z        PSCENC =       625.73373290
  Ewald energy   TEWEN  =     -7666.05666812
  -Hartree energ DENC   =     -2001.88697620
  -exchange      EXHF   =         0.00000000
  -V(xc)+E(xc)   XCENC  =       266.84512093
  PAW double counting   =      7885.35477825    -8503.46827497
  entropy T*S    EENTRO =         0.00000000
  eigenvalues    EBANDS =       604.36627947
  atomic energy  EATOM  =      9348.65935654
  Solvation  Ediel_sol  =         0.00000000
  ---------------------------------------------------
  free energy    TOTEN  =       559.54734880 eV

  energy without entropy =      559.54734880  energy(sigma->0) =      559.54734880


--------------------------------------------------------------------------------------------------------




--------------------------------------- Iteration      1(   2)  ---------------------------------------


     EDDAV:  cpu time      3.1226: real time      3.1252
 BZINTS: Fermi energy:    9.659065;   72.000000 electrons
         Band energy: 0.880444E+02;  BLOECHL correction:   -0.093482
       DOS:  cpu time      0.2121: real time      0.2122
    --------------------------------------------
      LOOP:  cpu time      3.3347: real time      3.3373

 eigenvalue-minimisations  :  7120
 total energy-change (2. order) :-0.5163218E+03  (-0.4468399E+03)
 number of electron      72.0000000 magnetization      34.0000000
 augmentation part       72.0000000 magnetization      34.0000000

 Free energy of the ion-electron system (eV)
  ---------------------------------------------------
  alpha Z        PSCENC =       625.73373290
  Ewald energy   TEWEN  =     -7666.05666812
  -Hartree energ DENC   =     -2001.88697620
  -exchange      EXHF   =         0.00000000
  -V(xc)+E(xc)   XCENC  =       266.84512093
  PAW double counting   =      7885.35477825    -8503.46827497
  entropy T*S    EENTRO =         0.00000000
  eigenvalues    EBANDS =        88.04443694
  atomic energy  EATOM  =      9348.65935654
  Solvation  Ediel_sol  =         0.00000000
  ---------------------------------------------------
  free energy    TOTEN  =        43.22550627 eV

  energy without entropy =       43.22550627  energy(sigma->0) =       43.22550627


--------------------------------------------------------------------------------------------------------




--------------------------------------- Iteration      1(   3)  ---------------------------------------


     EDDAV:  cpu time      3.0210: real time      3.0239
 BZINTS: Fermi energy:    7.531079;   72.000000 electrons
         Band energy:-0.198079E+02;  BLOECHL correction:   -0.013195
       DOS:  cpu time      0.1797: real time      0.1798
    --------------------------------------------
      LOOP:  cpu time      3.2007: real time      3.2036

 eigenvalue-minimisations  :  6752
 total energy-change (2. order) :-0.1078523E+03  (-0.9929159E+02)
 number of electron      72.0000000 magnetization      34.0000000
 augmentation part       72.0000000 magnetization      34.0000000

 Free energy of the ion-electron system (eV)
  ---------------------------------------------------
  alpha Z        PSCENC =       625.73373290
  Ewald energy   TEWEN  =     -7666.05666812
  -Hartree energ DENC   =     -2001.88697620
  -exchange      EXHF   =         0.00000000
  -V(xc)+E(xc)   XCENC  =       266.84512093
  PAW double counting   =      7885.35477825    -8503.46827497
  entropy T*S    EENTRO =         0.00000000
  eigenvalues    EBANDS =       -19.80788195
  atomic energy  EATOM  =      9348.65935654
  Solvation  Ediel_sol  =         0.00000000
  ---------------------------------------------------
  free energy    TOTEN  =       -64.62681262 eV

  energy without entropy =      -64.62681262  energy(sigma->0) =      -64.62681262


--------------------------------------------------------------------------------------------------------




--------------------------------------- Iteration      1(   4)  ---------------------------------------


     EDDAV:  cpu time      4.0037: real time      4.0073
 BZINTS: Fermi energy:    7.329197;   72.000000 electrons
         Band energy:-0.326354E+02;  BLOECHL correction:   -0.010674
       DOS:  cpu time      0.1780: real time      0.1782
    --------------------------------------------
      LOOP:  cpu time      4.1817: real time      4.1855

 eigenvalue-minimisations  :  9620
 total energy-change (2. order) :-0.1282747E+02  (-0.1237550E+02)
 number of electron      72.0000000 magnetization      34.0000000
 augmentation part       72.0000000 magnetization      34.0000000

 Free energy of the ion-electron system (eV)
  ---------------------------------------------------
  alpha Z        PSCENC =       625.73373290
  Ewald energy   TEWEN  =     -7666.05666812
  -Hartree energ DENC   =     -2001.88697620
  -exchange      EXHF   =         0.00000000
  -V(xc)+E(xc)   XCENC  =       266.84512093
  PAW double counting   =      7885.35477825    -8503.46827497
  entropy T*S    EENTRO =         0.00000000
  eigenvalues    EBANDS =       -32.63535203
  atomic energy  EATOM  =      9348.65935654
  Solvation  Ediel_sol  =         0.00000000
  ---------------------------------------------------
  free energy    TOTEN  =       -77.45428270 eV

  energy without entropy =      -77.45428270  energy(sigma->0) =      -77.45428270


--------------------------------------------------------------------------------------------------------




--------------------------------------- Iteration      1(   5)  ---------------------------------------


     EDDAV:  cpu time      4.3913: real time      4.3952
 BZINTS: Fermi energy:    7.306386;   72.000000 electrons
         Band energy:-0.335322E+02;  BLOECHL correction:   -0.011438
       DOS:  cpu time      0.1819: real time      0.1819
    CHARGE:  cpu time      0.1870: real time      0.1873
    MIXING:  cpu time      0.0012: real time      0.0012
    --------------------------------------------
      LOOP:  cpu time      4.7613: real time      4.7656

 eigenvalue-minimisations  : 10932
 total energy-change (2. order) :-0.8968885E+00  (-0.8881225E+00)
 number of electron      72.0000002 magnetization      16.2974256
 augmentation part       34.6644638 magnetization       8.3977753

 Broyden mixing:
  rms(total) = 0.92094E+01    rms(broyden)= 0.92094E+01
  rms(prec ) = 0.24620E+02
  weight for this iteration     100.00

 Free energy of the ion-electron system (eV)
  ---------------------------------------------------
  alpha Z        PSCENC =       625.73373290
  Ewald energy   TEWEN  =     -7666.05666812
  -Hartree energ DENC   =     -2001.88697620
  -exchange      EXHF   =         0.00000000
  -V(xc)+E(xc)   XCENC  =       266.84512093
  PAW double counting   =      7885.35477825    -8503.46827497
  entropy T*S    EENTRO =         0.00000000
  eigenvalues    EBANDS =       -33.53224056
  atomic energy  EATOM  =      9348.65935654
  Solvation  Ediel_sol  =         0.00000000
  ---------------------------------------------------
  free energy    TOTEN  =       -78.35117123 eV

  energy without entropy =      -78.35117123  energy(sigma->0) =      -78.35117123


--------------------------------------------------------------------------------------------------------




--------------------------------------- Iteration      1(   6)  ---------------------------------------


    POTLOK:  cpu time      0.0067: real time      0.0076
    SETDIJ:  cpu time      1.4947: real time      1.4954
    EDDIAG:  cpu time      0.2319: real time      0.2320
  RMM-DIIS:  cpu time      2.6305: real time      2.6334
    ORTHCH:  cpu time      0.0890: real time      0.0891
 BZINTS: Fermi energy:   11.900997;   72.000000 electrons
         Band energy:-0.433768E+03;  BLOECHL correction:   -0.158914
       DOS:  cpu time      0.1964: real time      0.1964
    CHARGE:  cpu time      0.1853: real time      0.1854
    MIXING:  cpu time      0.0019: real time      0.0224
    --------------------------------------------
      LOOP:  cpu time      4.8364: real time      4.8617

 eigenvalue-minimisations  : 12197
 total energy-change (2. order) :-0.1035656E+04  (-0.1346668E+03)
 number of electron      72.0000002 magnetization      10.0925208
 augmentation part       31.1296695 magnetization       8.9536060

 Broyden mixing:
  rms(total) = 0.21843E+02    rms(broyden)= 0.21843E+02
  rms(prec ) = 0.41243E+02
  weight for this iteration     100.00

 eigenvalues of (default mixing * dielectric matrix)
  average eigenvalue GAMMA=   0.2582
  0.2582

 Free energy of the ion-electron system (eV)
  ---------------------------------------------------
  alpha Z        PSCENC =       625.73373290
  Ewald energy   TEWEN  =     -7666.05666812
  -Hartree energ DENC   =     -2377.61936425
  -exchange      EXHF   =         0.00000000
  -V(xc)+E(xc)   XCENC  =       265.01267978
  PAW double counting   =      9248.01986637   -10123.98969771
  entropy T*S    EENTRO =         0.00000000
  eigenvalues    EBANDS =      -433.76756257
  atomic energy  EATOM  =      9348.65935654
  Solvation  Ediel_sol  =         0.00000000
  ---------------------------------------------------
  free energy    TOTEN  =     -1114.00765706 eV

  energy without entropy =    -1114.00765706  energy(sigma->0) =    -1114.00765706


--------------------------------------------------------------------------------------------------------




--------------------------------------- Iteration      1(   7)  ---------------------------------------


    POTLOK:  cpu time      0.0069: real time      0.0077
    SETDIJ:  cpu time      1.4997: real time      1.5013
    EDDIAG:  cpu time      0.2316: real time      0.2322
  RMM-DIIS:  cpu time      2.2692: real time      2.2714
    ORTHCH:  cpu time      0.0888: real time      0.0888
 BZINTS: Fermi energy:   10.478657;   72.000000 electrons
         Band energy:-0.113753E+03;  BLOECHL correction:   -0.061438
       DOS:  cpu time      0.1729: real time      0.1731
    CHARGE:  cpu time      0.1842: real time      0.1843
    MIXING:  cpu time      0.0014: real time      0.0014
    --------------------------------------------
      LOOP:  cpu time      4.4547: real time      4.4600

 eigenvalue-minimisations  : 10911
 total energy-change (2. order) : 0.7245461E+03  (-0.3238550E+02)
 number of electron      72.0000002 magnetization       8.8636475
 augmentation part       28.9401384 magnetization       7.5147854

 Broyden mixing:
  rms(total) = 0.10707E+02    rms(broyden)= 0.10707E+02
  rms(prec ) = 0.29529E+02
  weight for this iteration     100.00

 eigenvalues of (default mixing * dielectric matrix)
  average eigenvalue GAMMA=   0.5334
  0.5334  0.5334

 Free energy of the ion-electron system (eV)
  ---------------------------------------------------
  alpha Z        PSCENC =       625.73373290
  Ewald energy   TEWEN  =     -7666.05666812
  -Hartree energ DENC   =     -2081.87905812
  -exchange      EXHF   =         0.00000000
  -V(xc)+E(xc)   XCENC  =       251.86415313
  PAW double counting   =      9000.73615546    -9754.76655341
  entropy T*S    EENTRO =         0.00000000
  eigenvalues    EBANDS =      -113.75271881
  atomic energy  EATOM  =      9348.65935654
  Solvation  Ediel_sol  =         0.00000000
  ---------------------------------------------------
  free energy    TOTEN  =      -389.46160043 eV

  energy without entropy =     -389.46160043  energy(sigma->0) =     -389.46160043


--------------------------------------------------------------------------------------------------------




--------------------------------------- Iteration      1(   8)  ---------------------------------------


    POTLOK:  cpu time      0.0069: real time      0.0081
    SETDIJ:  cpu time      1.5026: real time      1.5048
    EDDIAG:  cpu time      0.2319: real time      0.2323
  RMM-DIIS:  cpu time      1.8927: real time      1.8951
    ORTHCH:  cpu time      0.0891: real time      0.0891
 BZINTS: Fermi energy:    8.614191;   72.000000 electrons
         Band energy:-0.331666E+02;  BLOECHL correction:   -0.016197
       DOS:  cpu time      0.1990: real time      0.1991
    CHARGE:  cpu time      0.1836: real time      0.1837
    MIXING:  cpu time      0.0013: real time      0.0013
    --------------------------------------------
      LOOP:  cpu time      4.1070: real time      4.1135

 eigenvalue-minimisations  :  9040
 total energy-change (2. order) : 0.3258435E+03  (-0.1080148E+02)
 number of electron      72.0000002 magnetization       5.5507307
 augmentation part       30.2165020 magnetization       4.2543369

 Broyden mixing:
  rms(total) = 0.66394E+01    rms(broyden)= 0.66394E+01
  rms(prec ) = 0.18998E+02
  weight for this iteration     100.00

 eigenvalues of (default mixing * dielectric matrix)
  average eigenvalue GAMMA=   0.6866
  0.6146  0.7226  0.7226

 Free energy of the ion-electron system (eV)
  ---------------------------------------------------
  alpha Z        PSCENC =       625.73373290
  Ewald energy   TEWEN  =     -7666.05666812
  -Hartree energ DENC   =     -1923.36129740
  -exchange      EXHF   =         0.00000000
  -V(xc)+E(xc)   XCENC  =       246.47056740
  PAW double counting   =      8520.30576739    -9182.20292454
  entropy T*S    EENTRO =         0.00000000
  eigenvalues    EBANDS =       -33.16661571
  atomic energy  EATOM  =      9348.65935654
  Solvation  Ediel_sol  =         0.00000000
  ---------------------------------------------------
  free energy    TOTEN  =       -63.61808154 eV

  energy without entropy =      -63.61808154  energy(sigma->0) =      -63.61808154


--------------------------------------------------------------------------------------------------------




--------------------------------------- Iteration      1(   9)  ---------------------------------------


    POTLOK:  cpu time      0.0073: real time      0.0082
    SETDIJ:  cpu time      1.4968: real time      1.5003
    EDDIAG:  cpu time      0.2309: real time      0.2310
  RMM-DIIS:  cpu time      2.1227: real time      2.1252
    ORTHCH:  cpu time      0.0889: real time      0.0889
 BZINTS: Fermi energy:    6.915674;   72.000000 electrons
         Band energy:-0.307013E+03;  BLOECHL correction:   -0.049297
       DOS:  cpu time      0.1900: real time      0.1901
    CHARGE:  cpu time      0.1833: real time      0.1835
    MIXING:  cpu time      0.0013: real time      0.0013
    --------------------------------------------
      LOOP:  cpu time      4.3213: real time      4.3284

 eigenvalue-minimisations  : 10222
 total energy-change (2. order) :-0.1318468E+03  (-0.7821310E+01)
 number of electron      72.0000001 magnetization       2.5287818
 augmentation part       34.1849583 magnetization       0.3498668

 Broyden mixing:
  rms(total) = 0.96977E+01    rms(broyden)= 0.96976E+01
  rms(prec ) = 0.28442E+02
  weight for this iteration     100.00

 eigenvalues of (default mixing * dielectric matrix)
  average eigenvalue GAMMA=   0.6698
  1.0127  0.5548  0.5559  0.5559

 Free energy of the ion-electron system (eV)
  ---------------------------------------------------
  alpha Z        PSCENC =       625.73373290
  Ewald energy   TEWEN  =     -7666.05666812
  -Hartree energ DENC   =     -1850.22930240
  -exchange      EXHF   =         0.00000000
  -V(xc)+E(xc)   XCENC  =       243.15023909
  PAW double counting   =      8215.83069840    -8805.54004240
  entropy T*S    EENTRO =         0.00000000
  eigenvalues    EBANDS =      -307.01288931
  atomic energy  EATOM  =      9348.65935654
  Solvation  Ediel_sol  =         0.00000000
  ---------------------------------------------------
  free energy    TOTEN  =      -195.46487529 eV

  energy without entropy =     -195.46487529  energy(sigma->0) =     -195.46487529


--------------------------------------------------------------------------------------------------------




--------------------------------------- Iteration      1(  10)  ---------------------------------------


    POTLOK:  cpu time      0.0073: real time      0.0079
    SETDIJ:  cpu time      1.4959: real time      1.4978
    EDDIAG:  cpu time      0.2318: real time      0.2319
  RMM-DIIS:  cpu time      1.9469: real time      1.9494
    ORTHCH:  cpu time      0.0890: real time      0.0891
 BZINTS: Fermi energy:    5.826241;   72.000000 electrons
         Band energy:-0.258154E+03;  BLOECHL correction:   -0.037498
       DOS:  cpu time      0.1900: real time      0.1902
    CHARGE:  cpu time      0.1829: real time      0.1830
    MIXING:  cpu time      0.0013: real time      0.0013
    --------------------------------------------
      LOOP:  cpu time      4.1452: real time      4.1507

 eigenvalue-minimisations  :  9296
 total energy-change (2. order) : 0.5004233E+02  (-0.1316688E+01)
 number of electron      72.0000002 magnetization       0.4102308
 augmentation part       36.6470648 magnetization      -0.4889128

 Broyden mixing:
  rms(total) = 0.86249E+01    rms(broyden)= 0.86249E+01
  rms(prec ) = 0.25175E+02
  weight for this iteration     100.00

 eigenvalues of (default mixing * dielectric matrix)
  average eigenvalue GAMMA=   0.7101
  1.2810  0.6262  0.6262  0.6683  0.3488

 Free energy of the ion-electron system (eV)
  ---------------------------------------------------
  alpha Z        PSCENC =       625.73373290
  Ewald energy   TEWEN  =     -7666.05666812
  -Hartree energ DENC   =     -1831.65904178
  -exchange      EXHF   =         0.00000000
  -V(xc)+E(xc)   XCENC  =       241.66974528
  PAW double counting   =      8369.72870222    -8975.34455939
  entropy T*S    EENTRO =         0.00000000
  eigenvalues    EBANDS =      -258.15381616
  atomic energy  EATOM  =      9348.65935654
  Solvation  Ediel_sol  =         0.00000000
  ---------------------------------------------------
  free energy    TOTEN  =      -145.42254851 eV

  energy without entropy =     -145.42254851  energy(sigma->0) =     -145.42254851


--------------------------------------------------------------------------------------------------------




--------------------------------------- Iteration      1(  11)  ---------------------------------------


    POTLOK:  cpu time      0.0072: real time      0.0077
    SETDIJ:  cpu time      1.4932: real time      1.4945
    EDDIAG:  cpu time      0.2313: real time      0.2314
  RMM-DIIS:  cpu time      2.3865: real time      2.3881
    ORTHCH:  cpu time      0.0889: real time      0.0889
 BZINTS: Fermi energy:    9.552937;   72.000000 electrons
         Band energy:-0.308563E+02;  BLOECHL correction:   -0.026683
       DOS:  cpu time      0.1835: real time      0.1837
    CHARGE:  cpu time      0.1854: real time      0.1857
    MIXING:  cpu time      0.0014: real time      0.0014
    --------------------------------------------
      LOOP:  cpu time      4.5774: real time      4.5813

 eigenvalue-minimisations  : 11558
 total energy-change (2. order) : 0.4426903E+02  (-0.3763256E+01)
 number of electron      72.0000002 magnetization       0.2991409
 augmentation part       27.0920564 magnetization       0.0710339

 Broyden mixing:
  rms(total) = 0.77828E+01    rms(broyden)= 0.77827E+01
  rms(prec ) = 0.22505E+02
  weight for this iteration     100.00

 eigenvalues of (default mixing * dielectric matrix)
  average eigenvalue GAMMA=   0.6280
  1.2693  0.5638  0.5638  0.7322  0.4176  0.2214

 Free energy of the ion-electron system (eV)
  ---------------------------------------------------
  alpha Z        PSCENC =       625.73373290
  Ewald energy   TEWEN  =     -7666.05666812
  -Hartree energ DENC   =     -1923.38043084
  -exchange      EXHF   =         0.00000000
  -V(xc)+E(xc)   XCENC  =       244.60117031
  PAW double counting   =      8761.94868613    -9461.80303118
  entropy T*S    EENTRO =         0.00000000
  eigenvalues    EBANDS =       -30.85633866
  atomic energy  EATOM  =      9348.65935654
  Solvation  Ediel_sol  =         0.00000000
  ---------------------------------------------------
  free energy    TOTEN  =      -101.15352292 eV

  energy without entropy =     -101.15352292  energy(sigma->0) =     -101.15352292


--------------------------------------------------------------------------------------------------------




--------------------------------------- Iteration      1(  12)  ---------------------------------------


    POTLOK:  cpu time      0.0067: real time      0.0077
    SETDIJ:  cpu time      1.4941: real time      1.4950
    EDDIAG:  cpu time      0.2316: real time      0.2318
  RMM-DIIS:  cpu time      1.6664: real time      1.6676
    ORTHCH:  cpu time      0.0892: real time      0.0892
 BZINTS: Fermi energy:    5.003775;   72.000000 electrons
         Band energy:-0.782660E+02;  BLOECHL correction:   -0.018498
       DOS:  cpu time      0.2039: real time      0.2040
    CHARGE:  cpu time      0.1856: real time      0.1858
    MIXING:  cpu time      0.0014: real time      0.0014
    --------------------------------------------
      LOOP:  cpu time      3.8789: real time      3.8825

 eigenvalue-minimisations  :  8004
 total energy-change (2. order) : 0.5448571E+02  (-0.1416097E+01)
 number of electron      72.0000002 magnetization       1.2874994
 augmentation part       37.4205227 magnetization       1.1119139

 Broyden mixing:
  rms(total) = 0.49873E+01    rms(broyden)= 0.49872E+01
  rms(prec ) = 0.14081E+02
  weight for this iteration     100.00

 eigenvalues of (default mixing * dielectric matrix)
  average eigenvalue GAMMA=   0.6210
  1.0257  1.0257  0.5646  0.5646  0.4856  0.4856  0.1953

 Free energy of the ion-electron system (eV)
  ---------------------------------------------------
  alpha Z        PSCENC =       625.73373290
  Ewald energy   TEWEN  =     -7666.05666812
  -Hartree energ DENC   =     -1868.43070550
  -exchange      EXHF   =         0.00000000
  -V(xc)+E(xc)   XCENC  =       242.71143235
  PAW double counting   =      8619.11764378    -9270.13660823
  entropy T*S    EENTRO =         0.00000000
  eigenvalues    EBANDS =       -78.26599384
  atomic energy  EATOM  =      9348.65935654
  Solvation  Ediel_sol  =         0.00000000
  ---------------------------------------------------
  free energy    TOTEN  =       -46.66781011 eV

  energy without entropy =      -46.66781011  energy(sigma->0) =      -46.66781011


--------------------------------------------------------------------------------------------------------




--------------------------------------- Iteration      1(  13)  ---------------------------------------


    POTLOK:  cpu time      0.0072: real time      0.0079
    SETDIJ:  cpu time      1.5009: real time      1.5018
    EDDIAG:  cpu time      0.2314: real time      0.2316
  RMM-DIIS:  cpu time      1.9805: real time      1.9817
    ORTHCH:  cpu time      0.0895: real time      0.0896
 BZINTS: Fermi energy:    8.408346;   72.000000 electrons
         Band energy:-0.332941E+02;  BLOECHL correction:   -0.005601
       DOS:  cpu time      0.1927: real time      0.1928
    CHARGE:  cpu time      0.1839: real time      0.1841
    MIXING:  cpu time      0.0015: real time      0.0015
    --------------------------------------------
      LOOP:  cpu time      4.1876: real time      4.1909

 eigenvalue-minimisations  :  9534
 total energy-change (2. order) :-0.2031083E+02  (-0.3692644E+00)
 number of electron      72.0000002 magnetization       3.9088724
 augmentation part       29.3779427 magnetization       3.6364568

 Broyden mixing:
  rms(total) = 0.61970E+01    rms(broyden)= 0.61970E+01
  rms(prec ) = 0.18132E+02
  weight for this iteration     100.00

 eigenvalues of (default mixing * dielectric matrix)
  average eigenvalue GAMMA=   0.6386
  1.2452  1.2452  0.5289  0.5289  0.4998  0.4998  0.3754  0.1860

 Free energy of the ion-electron system (eV)
  ---------------------------------------------------
  alpha Z        PSCENC =       625.73373290
  Ewald energy   TEWEN  =     -7666.05666812
  -Hartree energ DENC   =     -1907.24801134
  -exchange      EXHF   =         0.00000000
  -V(xc)+E(xc)   XCENC  =       244.12610710
  PAW double counting   =      8721.11574696    -9400.01481801
  entropy T*S    EENTRO =         0.00000000
  eigenvalues    EBANDS =       -33.29408418
  atomic energy  EATOM  =      9348.65935654
  Solvation  Ediel_sol  =         0.00000000
  ---------------------------------------------------
  free energy    TOTEN  =       -66.97863815 eV

  energy without entropy =      -66.97863815  energy(sigma->0) =      -66.97863815


--------------------------------------------------------------------------------------------------------




--------------------------------------- Iteration      1(  14)  ---------------------------------------


    POTLOK:  cpu time      0.0069: real time      0.0077
    SETDIJ:  cpu time      1.4994: real time      1.5002
    EDDIAG:  cpu time      0.2317: real time      0.2319
  RMM-DIIS:  cpu time      1.7455: real time      1.7465
    ORTHCH:  cpu time      0.0888: real time      0.0889
 BZINTS: Fermi energy:    5.803385;   72.000000 electrons
         Band energy:-0.537020E+02;  BLOECHL correction:   -0.018582
       DOS:  cpu time      0.1924: real time      0.1925
    CHARGE:  cpu time      0.1837: real time      0.1838
    MIXING:  cpu time      0.0015: real time      0.0015
    --------------------------------------------
      LOOP:  cpu time      3.9499: real time      3.9529

 eigenvalue-minimisations  :  8313
 total energy-change (2. order) : 0.2126863E+02  (-0.4620788E+00)
 number of electron      72.0000002 magnetization       2.9042991
 augmentation part       34.8283795 magnetization       1.8171588

 Broyden mixing:
  rms(total) = 0.49295E+01    rms(broyden)= 0.49294E+01
  rms(prec ) = 0.51149E+01
  weight for this iteration     100.00

 eigenvalues of (default mixing * dielectric matrix)
  average eigenvalue GAMMA=   0.5709
  1.1408  1.1408  0.5376  0.5376  0.5656  0.5656  0.3562  0.1831  0.1111

 Free energy of the ion-electron system (eV)
  ---------------------------------------------------
  alpha Z        PSCENC =       625.73373290
  Ewald energy   TEWEN  =     -7666.05666812
  -Hartree energ DENC   =     -1892.73601626
  -exchange      EXHF   =         0.00000000
  -V(xc)+E(xc)   XCENC  =       244.05573092
  PAW double counting   =      8610.09106495    -9261.75522613
  entropy T*S    EENTRO =         0.00000000
  eigenvalues    EBANDS =       -53.70197997
  atomic energy  EATOM  =      9348.65935654
  Solvation  Ediel_sol  =         0.00000000
  ---------------------------------------------------
  free energy    TOTEN  =       -45.71000517 eV

  energy without entropy =      -45.71000517  energy(sigma->0) =      -45.71000517


--------------------------------------------------------------------------------------------------------




--------------------------------------- Iteration      1(  15)  ---------------------------------------


    POTLOK:  cpu time      0.0068: real time      0.0078
    SETDIJ:  cpu time      1.4926: real time      1.4936
    EDDIAG:  cpu time      0.2316: real time      0.2317
  RMM-DIIS:  cpu time      2.0866: real time      2.0888
    ORTHCH:  cpu time      0.0890: real time      0.0892
 BZINTS: Fermi energy:    5.567038;   72.000000 electrons
         Band energy:-0.592982E+02;  BLOECHL correction:   -0.013582
       DOS:  cpu time      0.1979: real time      0.1979
    CHARGE:  cpu time      0.1836: real time      0.1837
    MIXING:  cpu time      0.0016: real time      0.0016
    --------------------------------------------
      LOOP:  cpu time      4.2896: real time      4.2943

 eigenvalue-minimisations  :  9907
 total energy-change (2. order) : 0.4540385E+00  (-0.5073394E-01)
 number of electron      72.0000002 magnetization       2.3686807
 augmentation part       35.3126518 magnetization       1.3022077

 Broyden mixing:
  rms(total) = 0.42895E+01    rms(broyden)= 0.42895E+01
  rms(prec ) = 0.60465E+01
  weight for this iteration     100.00

 eigenvalues of (default mixing * dielectric matrix)
  average eigenvalue GAMMA=   0.5156
  1.1358  1.1358  0.5379  0.5379  0.5683  0.5683  0.3571  0.1832  0.1196  0.0124

 Free energy of the ion-electron system (eV)
  ---------------------------------------------------
  alpha Z        PSCENC =       625.73373290
  Ewald energy   TEWEN  =     -7666.05666812
  -Hartree energ DENC   =     -1887.46203348
  -exchange      EXHF   =         0.00000000
  -V(xc)+E(xc)   XCENC  =       243.70085370
  PAW double counting   =      8615.09676215    -9265.62979701
  entropy T*S    EENTRO =         0.00000000
  eigenvalues    EBANDS =       -59.29817333
  atomic energy  EATOM  =      9348.65935654
  Solvation  Ediel_sol  =         0.00000000
  ---------------------------------------------------
  free energy    TOTEN  =       -45.25596664 eV

  energy without entropy =      -45.25596664  energy(sigma->0) =      -45.25596664


--------------------------------------------------------------------------------------------------------




--------------------------------------- Iteration      1(  16)  ---------------------------------------


    POTLOK:  cpu time      0.0068: real time      0.0078
    SETDIJ:  cpu time      1.5040: real time      1.5052
    EDDIAG:  cpu time      0.2315: real time      0.2317
  RMM-DIIS:  cpu time      2.1786: real time      2.1806
    ORTHCH:  cpu time      0.0888: real time      0.0889
 BZINTS: Fermi energy:    5.273549;   72.000000 electrons
         Band energy:-0.672661E+02;  BLOECHL correction:   -0.011795
       DOS:  cpu time      0.2042: real time      0.2044
    CHARGE:  cpu time      0.1866: real time      0.1869
    MIXING:  cpu time      0.0017: real time      0.0016
    --------------------------------------------
      LOOP:  cpu time      4.4022: real time      4.4071

 eigenvalue-minimisations  : 10323
 total energy-change (2. order) :-0.1288874E+01  (-0.2266030E-01)
 number of electron      72.0000002 magnetization       0.7483238
 augmentation part       36.6049358 magnetization       0.1161737

 Broyden mixing:
  rms(total) = 0.47921E+01    rms(broyden)= 0.47921E+01
  rms(prec ) = 0.13388E+02
  weight for this iteration     100.00

 eigenvalues of (default mixing * dielectric matrix)
  average eigenvalue GAMMA=   0.5145
  1.1039  1.1039  0.5411  0.5411  0.6122  0.6122  0.3556  0.1845  0.2216  0.2216
  0.1616

 Free energy of the ion-electron system (eV)
  ---------------------------------------------------
  alpha Z        PSCENC =       625.73373290
  Ewald energy   TEWEN  =     -7666.05666812
  -Hartree energ DENC   =     -1883.59317901
  -exchange      EXHF   =         0.00000000
  -V(xc)+E(xc)   XCENC  =       243.49332417
  PAW double counting   =      8608.02358621    -9255.53891536
  entropy T*S    EENTRO =         0.00000000
  eigenvalues    EBANDS =       -67.26607755
  atomic energy  EATOM  =      9348.65935654
  Solvation  Ediel_sol  =         0.00000000
  ---------------------------------------------------
  free energy    TOTEN  =       -46.54484022 eV

  energy without entropy =      -46.54484022  energy(sigma->0) =      -46.54484022


--------------------------------------------------------------------------------------------------------




--------------------------------------- Iteration      1(  17)  ---------------------------------------


    POTLOK:  cpu time      0.0068: real time      0.0078
    SETDIJ:  cpu time      1.4909: real time      1.4918
    EDDIAG:  cpu time      0.2311: real time      0.2314
  RMM-DIIS:  cpu time      2.2603: real time      2.2626
    ORTHCH:  cpu time      0.0887: real time      0.0888
 BZINTS: Fermi energy:    6.380700;   72.000000 electrons
         Band energy:-0.496338E+02;  BLOECHL correction:   -0.002454
       DOS:  cpu time      0.1938: real time      0.1939
    CHARGE:  cpu time      0.1843: real time      0.1845
    MIXING:  cpu time      0.0017: real time      0.0017
    --------------------------------------------
      LOOP:  cpu time      4.4576: real time      4.4626

 eigenvalue-minimisations  : 10896
 total energy-change (2. order) : 0.4425862E+00  (-0.1078633E+00)
 number of electron      72.0000002 magnetization       2.1589071
 augmentation part       33.6259224 magnetization       2.1541876

 Broyden mixing:
  rms(total) = 0.29971E+01    rms(broyden)= 0.29970E+01
  rms(prec ) = 0.88847E+01
  weight for this iteration     100.00

 eigenvalues of (default mixing * dielectric matrix)
  average eigenvalue GAMMA=   0.5139
  1.0895  1.0895  0.7019  0.7019  0.5535  0.5535  0.3298  0.3298  0.1717  0.3006
  0.1908  0.1537

 Free energy of the ion-electron system (eV)
  ---------------------------------------------------
  alpha Z        PSCENC =       625.73373290
  Ewald energy   TEWEN  =     -7666.05666812
  -Hartree energ DENC   =     -1891.60217786
  -exchange      EXHF   =         0.00000000
  -V(xc)+E(xc)   XCENC  =       243.61798101
  PAW double counting   =      8665.68184636    -9322.50254764
  entropy T*S    EENTRO =         0.00000000
  eigenvalues    EBANDS =       -49.63377717
  atomic energy  EATOM  =      9348.65935654
  Solvation  Ediel_sol  =         0.00000000
  ---------------------------------------------------
  free energy    TOTEN  =       -46.10225397 eV

  energy without entropy =      -46.10225397  energy(sigma->0) =      -46.10225397


--------------------------------------------------------------------------------------------------------




--------------------------------------- Iteration      1(  18)  ---------------------------------------


    POTLOK:  cpu time      0.0069: real time      0.0080
    SETDIJ:  cpu time      1.4988: real time      1.4998
    EDDIAG:  cpu time      0.2312: real time      0.2315
  RMM-DIIS:  cpu time      2.0320: real time      2.0342
    ORTHCH:  cpu time      0.0889: real time      0.0889
 BZINTS: Fermi energy:    5.903249;   72.000000 electrons
         Band energy:-0.456444E+02;  BLOECHL correction:   -0.004982
       DOS:  cpu time      0.1976: real time      0.1977
    CHARGE:  cpu time      0.1835: real time      0.1836
    MIXING:  cpu time      0.0017: real time      0.0017
    --------------------------------------------
      LOOP:  cpu time      4.2406: real time      4.2454

 eigenvalue-minimisations  :  9678
 total energy-change (2. order) : 0.2159701E+01  (-0.6173220E-01)
 number of electron      72.0000002 magnetization       2.1678166
 augmentation part       34.4383399 magnetization       1.7432438

 Broyden mixing:
  rms(total) = 0.11140E+01    rms(broyden)= 0.11136E+01
  rms(prec ) = 0.18838E+01
  weight for this iteration     100.00

 eigenvalues of (default mixing * dielectric matrix)
  average eigenvalue GAMMA=   0.4774
  1.0942  1.0942  0.5534  0.5534  0.6935  0.6935  0.3232  0.3232  0.3183  0.1719
  0.1876  0.1000  0.1000

 Free energy of the ion-electron system (eV)
  ---------------------------------------------------
  alpha Z        PSCENC =       625.73373290
  Ewald energy   TEWEN  =     -7666.05666812
  -Hartree energ DENC   =     -1899.35381064
  -exchange      EXHF   =         0.00000000
  -V(xc)+E(xc)   XCENC  =       244.16769809
  PAW double counting   =      8631.92604692    -9283.37451880
  entropy T*S    EENTRO =         0.00000000
  eigenvalues    EBANDS =       -45.64438942
  atomic energy  EATOM  =      9348.65935654
  Solvation  Ediel_sol  =         0.00000000
  ---------------------------------------------------
  free energy    TOTEN  =       -43.94255253 eV

  energy without entropy =      -43.94255253  energy(sigma->0) =      -43.94255253


--------------------------------------------------------------------------------------------------------




--------------------------------------- Iteration      1(  19)  ---------------------------------------


    POTLOK:  cpu time      0.0072: real time      0.0079
    SETDIJ:  cpu time      1.4980: real time      1.4991
    EDDIAG:  cpu time      0.2309: real time      0.2311
  RMM-DIIS:  cpu time      1.9727: real time      1.9741
    ORTHCH:  cpu time      0.0887: real time      0.0887
 BZINTS: Fermi energy:    5.991064;   72.000000 electrons
         Band energy:-0.510029E+02;  BLOECHL correction:   -0.015724
       DOS:  cpu time      0.1773: real time      0.1774
    CHARGE:  cpu time      0.1839: real time      0.1840
    MIXING:  cpu time      0.0019: real time      0.0019
    --------------------------------------------
      LOOP:  cpu time      4.1606: real time      4.1643

 eigenvalue-minimisations  :  9523
 total energy-change (2. order) :-0.2730844E+01  (-0.1151805E-01)
 number of electron      72.0000002 magnetization       2.1643514
 augmentation part       34.2271274 magnetization       1.9542956

 Broyden mixing:
  rms(total) = 0.11230E+01    rms(broyden)= 0.11229E+01
  rms(prec ) = 0.22027E+01
  weight for this iteration     100.00

 eigenvalues of (default mixing * dielectric matrix)
  average eigenvalue GAMMA=   0.4855
  1.1182  1.1182  0.6835  0.6835  0.5464  0.5464  0.3181  0.3181  0.1732  0.3189
  0.3189  0.2362  0.2362  0.1810

 Free energy of the ion-electron system (eV)
  ---------------------------------------------------
  alpha Z        PSCENC =       625.73373290
  Ewald energy   TEWEN  =     -7666.05666812
  -Hartree energ DENC   =     -1899.52528764
  -exchange      EXHF   =         0.00000000
  -V(xc)+E(xc)   XCENC  =       244.18733333
  PAW double counting   =      8625.79803753    -9274.46700463
  entropy T*S    EENTRO =         0.00000000
  eigenvalues    EBANDS =       -51.00289618
  atomic energy  EATOM  =      9348.65935654
  Solvation  Ediel_sol  =         0.00000000
  ---------------------------------------------------
  free energy    TOTEN  =       -46.67339628 eV

  energy without entropy =      -46.67339628  energy(sigma->0) =      -46.67339628


--------------------------------------------------------------------------------------------------------




--------------------------------------- Iteration      1(  20)  ---------------------------------------


    POTLOK:  cpu time      0.0067: real time      0.0078
    SETDIJ:  cpu time      1.5030: real time      1.5042
    EDDIAG:  cpu time      0.2311: real time      0.2314
  RMM-DIIS:  cpu time      2.0725: real time      2.0741
    ORTHCH:  cpu time      0.0889: real time      0.0889
 BZINTS: Fermi energy:    6.000066;   72.000000 electrons
         Band energy:-0.540081E+02;  BLOECHL correction:   -0.017364
       DOS:  cpu time      0.1856: real time      0.1858
    CHARGE:  cpu time      0.1878: real time      0.1880
    MIXING:  cpu time      0.0020: real time      0.0020
    --------------------------------------------
      LOOP:  cpu time      4.2777: real time      4.2821

 eigenvalue-minimisations  :  9904
 total energy-change (2. order) :-0.3215064E+00  (-0.5018140E-02)
 number of electron      72.0000002 magnetization       1.5225028
 augmentation part       34.2300622 magnetization       1.3030081

 Broyden mixing:
  rms(total) = 0.11608E+01    rms(broyden)= 0.11608E+01
  rms(prec ) = 0.23116E+01
  weight for this iteration     100.00

 eigenvalues of (default mixing * dielectric matrix)
  average eigenvalue GAMMA=   0.4609
  1.1096  1.1096  0.6927  0.6927  0.5462  0.5462  0.3456  0.3456  0.1734  0.3246
  0.3246  0.2346  0.2346  0.1807  0.0521

 Free energy of the ion-electron system (eV)
  ---------------------------------------------------
  alpha Z        PSCENC =       625.73373290
  Ewald energy   TEWEN  =     -7666.05666812
[...]
  352                map_gather                            0.000228                   12   7
  353                m_alltoallv_z                         0.000130                   12   7
  354                map_scatter                           0.000450                   12   7
  355        m_sumb_d                              0.000026                            5   3
  356        forhar                                0.000898                            2   3
  357          m_sumb_d                              0.000024                          2   4
  358        strehar                               0.000838                            1   3
  359          m_sumb_d                              0.000055                          1   4
  360        chggra                                0.000730                            1   3
  361          fft3d_mpi                             0.000434                          3   4
  362            fftbrc_mpi                            0.000347                        3   5
  363              fftbas_plan_mpi                       0.000345                      3   6
  364                map_forward                           0.000179                    4   7
  365                  map_gather                            0.000039                  2   8
  366                  m_alltoallv_z                         0.000025                  2   8
  367                  map_scatter                           0.000090                  2   8
  368                map_backward                          0.000083                    2   7
  369                  map_gather                            0.000018                  1   8
  370                  m_alltoallv_z                         0.000011                  1   8
  371                  map_scatter                           0.000042                  1   8
  372          m_sumb_d                              0.000011                          2   4
  373          pothar                                0.000073                          1   4
  374            m_sumb_d                              0.000011                        1   5
  375        brmix                                 0.004393                            1   3
  376          m_sumb_d                              0.000026                          6   4
  377          brpre                                 0.000014                          2   4
  378          setg0                                 0.000462                          1   4
  379          broyd                                 0.003312                          1   4
  380            m_sumb_d                              0.000312                       49   5
  381            brget                                 0.000630                      219   5
  382            brsav                                 0.000131                       47   5
  383        m_bcast_d                             0.000018                            2   3
  384      potlok                                0.017840                              2   2
  385        fft3d_mpi                             0.012317                           36   3
  386          fftbrc_mpi                            0.010375                         36   4
  387            fftbas_plan_mpi                       0.010355                       36   5
  388              map_forward                           0.003067                     40   6
  389                map_gather                            0.001061                   24   7
  390                m_alltoallv_z                         0.000900                   24   7
  391                map_scatter                           0.000927                   24   7
  392              map_backward                          0.002559                     32   6
  393                map_gather                            0.000802                   16   7
  394                m_alltoallv_z                         0.000732                   16   7
  395                map_scatter                           0.000845                   16   7
  396              dfftw_execute                         0.003151                     30   6
  397        m_sumb_d                              0.000024                            5   3
  398        pothar                                0.000714                            2   3
  399          m_sumb_d                              0.000074                          2   4
  400        m_bcast_d                             0.001106                            4   3
  401      potlok_metagga                        0.000000                              1   2
  402      set_dd_magatom                        0.000005                              1   2
  403      set_dd_paw                            1.405225                              1   2
  404        m_sumb_d                              0.928350                            7   3
  405      augmentation_charge                   0.089316                              1   2
  406        fft3d_mpi                             0.016777                            2   3
  407          fftbrc_mpi                            0.014412                          2   4
  408            fftbas_plan_mpi                       0.014410                        2   5
  409              dfftw_execute                         0.009189                      6   6
  410              map_backward                          0.005077                      4   6
  411                map_gather                            0.001302                    2   7
  412                m_alltoallv_z                         0.002549                    2   7
  413                map_scatter                           0.001221                    2   7
  414      densta                                5.426012                              1   2
 
 Flat profile
 ============
 
             routine name                   CPU           calls
 ---------------------------------------------------------------
 m_sumb_d                              256.607649       73663
 set_dd_paw                            121.512175         255
 raccmu_                                94.944243      205056
 eccp                                   88.078650     1141190
 w1_gemv                                68.532924     2919620
 i2                                     58.697142      196977
 densta                                 52.668284         258
 eccp_nl                                50.510615      925310
 phaser                                 30.132960       14756
 cnorma                                 24.529010      925310
 overl1                                 23.851173     1459810
 eddrmm                                 22.943236         252
 eddiag                                 22.926051         252
 setdij_                                18.690898         281
 augmentation_charge                    18.234240         254
 redis_pw                               18.054379      140574
 fft3d                                  15.950510     2249061
 m_alltoall_d                           14.122135     2442622
 w1_dscal                               13.288512     2219514
 fftwav                                 12.050320     1308634
 w1_gaxpy                               11.935483     2285091
 init_acc                               11.644683           1
 w1_copy                                11.589064     2186238
 apply_precond                          11.183803     2507683
 soft_charge                            10.549040         253
 hamilt_local                            8.455451      211680
 total_time                              7.950183           1
 setup_precond                           7.605579      215880
 w1_daxpy                                7.528842     1427274
 rpromu_acc                              7.347303      205728
 racc0mu_acc                             7.102057      205056
 dfftw_execute                           6.511388        6492
 w1_dot                                  5.888523      211676
 newband                                 5.712615      219448
 hamiltmu                                4.896561      205056
 zhegv                                   4.207672      501961
 kinhamil                                4.025888      940427
 vhamil                                  3.935321      940427
 fftext_mpi                              3.725157      940427
 redis_proj                              3.709652      137424
 eddav                                   3.604139           5
 pw_charge                               3.512655      134708
 depsum                                  3.475864         253
 lapack                                  3.419628        8079
 overl_mu                                3.097548      205056
 acc_init_cublas                         2.377866           1
 orthch                                  2.055565         253
 m_alltoallv_z                           1.975798        9809
 choleski                                1.936420       14168
 i3                                      1.783278      196977
 fftwav_mpi                              1.781026     1308634
 fft3d_mpi                               1.754826      949220
 set_charge                              1.332088         253
 map_gather                              0.986462        9809
 map_scatter                             0.983449        9809
 orth1                                   0.967833       80797
 acc_init_cusolver                       0.799010           1
 potlok                                  0.665933         255
 rpro_isp                                0.610686         364
 lincom                                  0.551842       28560
 broyd                                   0.540827         253
 overl                                   0.487006       54292
 elmin                                   0.419118           1
 fftbas_plan_mpi                         0.414527        8793
 m_bcast_z                               0.249660       11439
 i1                                      0.215442      196977
 w1_projall                              0.179263      202816
 rspher_all                              0.155641          14
 brget                                   0.152331       55800
 brmix                                   0.143349         253
 m_bcast_d                               0.137414       16673
 acc_cufft_makeplan                      0.123690          19
 setg0                                   0.118444         255
 ggemm                                   0.106848       10319
 truncate_high_frequency_w1              0.070502      944627
 sphpro_fast                             0.065708           2
 map_backward                            0.047676        9294
 map_forward                             0.046110        8292
 proall                                  0.046083           1
 brsav                                   0.041147       15952
 pothar                                  0.018927         256
 force_and_stress                        0.008738           1
 strnlr                                  0.007330           1
 fft_gq                                  0.006399         253
 inisym                                  0.004829           1
 fftbrc_mpi                              0.004797        8793
 brpre                                   0.004225         506
 fornlr                                  0.002536           1
 stufak                                  0.001961           1
 shift_bands_between_low_high            0.001745       14112
 set_dd_magatom                          0.001221         255
 strelo                                  0.001121           1
 vectorpot                               0.001081         254
 forhar                                  0.000874           2
 strehar                                 0.000783           1
 forloc                                  0.000494           1
 strkin                                  0.000374           1
 fewald                                  0.000366           1
 chggra                                  0.000212           1
 brgrid                                  0.000114           1
 rsp                                     0.000107           1
 fordep                                  0.000059           1
 posmap                                  0.000057           2
 crpa_reader                             0.000026           1
 potlok_metagga                          0.000021         254
 rcp                                     0.000016           1
 acc_cufft_makeplans                     0.000015           3
 rotate_active_occupied_orbital          0.000000           1
 redis_pw_over_bands                     0.000000           1
 ---------------------------------------------------------------
  summed up times     1213.330503940582     
 
 Accumulative profile
 ====================
 
             routine name                   CPU           calls
 ---------------------------------------------------------------
 total_time                           1213.330504           1
 elmin                                1176.304734           1
 eddrmm                                601.851496         252
 set_dd_paw                            358.610662         255
 m_sumb_d                              256.607649       73663
 i2                                    206.723626      196977
 i3                                    164.533604      196977
 hamiltmu                              124.353503      205056
 raccmu_                               105.143848      205056
 w1_gemv                                92.384097     2919620
 eccp                                   88.078650     1141190
 cnorma                                 75.039625      925310
 eddiag                                 58.340778         252
 densta                                 52.668284         258
 eccp_nl                                50.510615      925310
 set_charge                             46.323395         253
 newband                                36.002444      219448
 phaser                                 30.132960       14756
 setdij_                                25.370389         281
 redis_pw                               24.457400      140574
 overl1                                 23.851173     1459810
 fftwav_mpi                             23.548442     1308634
 orthch                                 22.696770         253
 augmentation_charge                    22.630709         254
 fftwav                                 21.767417     1308634
 fft3d_mpi                              18.958448      949220
 soft_charge                            18.776520         253
 eddav                                  18.347423           5
 fft3d                                  15.950510     2249061
 kinhamil                               14.256729      940427
 m_alltoall_d                           14.122135     2442622
 w1_dscal                               13.288512     2219514
 hamilt_local                           12.334407      211680
 w1_gaxpy                               11.935483     2285091
 init_acc                               11.644683           1
 w1_copy                                11.589064     2186238
 redis_proj                             11.428766      137424
 apply_precond                          11.183803     2507683
 fftbrc_mpi                             10.970209        8793
 fftbas_plan_mpi                        10.965411        8793
 fftext_mpi                             10.230841      940427
 setup_precond                           7.605579      215880
 w1_daxpy                                7.528842     1427274
 rpromu_acc                              7.347303      205728
 racc0mu_acc                             7.102057      205056
 w1_projall                              7.036428      202816
 dfftw_execute                           6.511388        6492
 force_and_stress                        6.202535           1
 w1_dot                                  5.888523      211676
 zhegv                                   4.207672      501961
 vhamil                                  3.935321      940427
 pw_charge                               3.512655      134708
 depsum                                  3.495640         253
 lapack                                  3.419628        8079
 i1                                      3.397052      196977
 overl_mu                                3.097548      205056
 acc_init_cublas                         2.377866           1
 map_backward                            2.040947        9294
 map_forward                             1.998550        8292
 m_alltoallv_z                           1.975798        9809
 choleski                                1.936420       14168
 potlok                                  1.823785         255
 strnlr                                  1.677709           1
 rpro_isp                                1.426244         364
 brmix                                   1.079775         253
 map_gather                              0.986462        9809
 map_scatter                             0.983449        9809
 orth1                                   0.967833       80797
 broyd                                   0.805284         253
 acc_init_cusolver                       0.799010           1
 fornlr                                  0.565611           1
 lincom                                  0.551842       28560
 fordep                                  0.543815           1
 overl                                   0.487006       54292
 fft_gq                                  0.259545         253
 m_bcast_z                               0.249660       11439
 rspher_all                              0.155641          14
 brget                                   0.152331       55800
 proall                                  0.148444           1
 m_bcast_d                               0.137414       16673
 acc_cufft_makeplans                     0.123705           3
 acc_cufft_makeplan                      0.123690          19
 setg0                                   0.118444         255
 ggemm                                   0.106848       10319
 truncate_high_frequency_w1              0.070502      944627
 sphpro_fast                             0.067570           2
 brsav                                   0.041147       15952
 pothar                                  0.021053         256
 inisym                                  0.004886           1
 fewald                                  0.004282           1
 brpre                                   0.004225         506
 stufak                                  0.001961           1
 shift_bands_between_low_high            0.001745       14112
 set_dd_magatom                          0.001221         255
 strelo                                  0.001155           1
 vectorpot                               0.001081         254
 forhar                                  0.000898           2
 strehar                                 0.000838           1
 chggra                                  0.000730           1
 forloc                                  0.000510           1
 strkin                                  0.000379           1
 brgrid                                  0.000114           1
 rsp                                     0.000107           1
 posmap                                  0.000057           2
 crpa_reader                             0.000026           1
 potlok_metagga                          0.000021         254
 rcp                                     0.000016           1
 rotate_active_occupied_orbital          0.000000           1
 redis_pw_over_bands                     0.000000           1
 ---------------------------------------------------------------
 
Profiling took   3.534383  2.498762  0.003312  0.003235 seconds
Profiling took   2.878238 seconds
