 vasp.6.3.2 27Jun22 (build Jul  3 2023 11:46:21) complex                         
 executed on    LinuxNV_CrayMPICH date 2024.04.21  07:55:05
 running on    4 total cores
 distrk:  each k-point on    4 cores,    1 groups
 distr:  one band on NCORE=   1 cores,    4 groups


--------------------------------------------------------------------------------------------------------


 INCAR:
   ADDGRID = True
   ALGO = Normal
   EDIFF = 0.0005
   ENCUT = 520.0
   IBRION = -1
   ICHARG = 0
   ISIF = 3
   ISMEAR = -5
   ISPIN = 2
   KPOINT_BSE = -1 0 0 0
   LAECHG = True
   LASPH = True
   LCHARG = True
   LELF = True
   LORBIT = 11
   LREAL = Auto
   LVHAR = True
   LWAVE = False
   MAGMOM = 2*0.6 1*7.0 7*0.6
   NELM = 1000
   NSW = 0
   PREC = accurate
   SIGMA = 0.05

 POTCAR:    PAW_PBE Na_pv 19Sep2006               
 POTCAR:    PAW_PBE Eu 23Dec2003                  
 POTCAR:    PAW_PBE Cu_pv 06Sep2000               
 POTCAR:    PAW_PBE Cl 06Sep2000                  
 POTCAR:    PAW_PBE Na_pv 19Sep2006               
   SHA256 =  6a2f546d9e11350984debacf3dc457d8cffc0868e817d445faca461816a32b94 Na_pv/POTCAR          
   COPYR  = (c) Copyright 19Sep2006 Georg Kresse                                                    
   COPYR  = This file is part of the software VASP. Any use, copying, and all other rights are regul
   COPYR  = If you do not have a valid VASP license, you may not use, copy or distribute this file. 
   VRHFIN =Na: p6s1                                                                                 
   LEXCH  = PE                                                                                      
   EATOM  =   766.0439 eV,   56.3026 Ry                                                             
                                                                                                    
   TITEL  = PAW_PBE Na_pv 19Sep2006                                                                 
   LULTRA =        F    use ultrasoft PP ?                                                          
   IUNSCR =        1    unscreen: 0-lin 1-nonlin 2-no                                               
   RPACOR =    1.800    partial core radius                                                         
   POMASS =   22.990; ZVAL   =    7.000    mass and valenz                                          
   RCORE  =    2.200    outmost cutoff radius                                                       
   RWIGS  =    2.200; RWIGS  =    1.164    wigner-seitz radius (au A)                               
   ENMAX  =  259.561; ENMIN  =  194.671 eV                                                          
   ICORE  =        2    local potential                                                             
   LCOR   =        T    correct aug charges                                                         
   LPAW   =        T    paw PP                                                                      
   EAUG   =  368.056                                                                                
   DEXC   =    0.000                                                                                
   RMAX   =    2.245    core radius for proj-oper                                                   
   RAUG   =    1.300    factor for augmentation sphere                                              
   RDEP   =    2.259    radius for radial grids                                                     
   RDEPT  =    1.738    core radius for aug-charge                                                  
                                                                                                    
   Atomic configuration                                                                             
    5 entries                                                                                       
     n  l   j            E        occ.                                                              
     1  0  0.50     -1033.6933   2.0000                                                             
     2  0  0.50       -56.7526   2.0000                                                             
     2  1  1.50       -28.6721   6.0000                                                             
     3  0  0.50        -2.7440   1.0000                                                             
     3  2  1.50        -1.3606   0.0000                                                             
   Description                                                                                      
     l       E           TYP  RCUT    TYP  RCUT                                                     
     1    -28.6720912     23  2.000                                                                 
     1      6.8029130     23  2.000                                                                 
     0     -2.7439560     23  2.200                                                                 
     0     34.0145650     23  2.200                                                                 
     2     -1.3605826     23  2.200                                                                 
  local pseudopotential read in
  partial core-charges read in
  partial kinetic energy density read in
  atomic valenz-charges read in
  non local Contribution for L=            1  read in
    real space projection operators read in
  non local Contribution for L=            1  read in
    real space projection operators read in
  non local Contribution for L=            0  read in
    real space projection operators read in
  non local Contribution for L=            0  read in
    real space projection operators read in
    PAW grid and wavefunctions read in
 
   number of l-projection  operators is LMAX  =            4
   number of lm-projection operators is LMMAX =            8
 
 POTCAR:    PAW_PBE Eu 23Dec2003                  
   SHA256 =  ed303d27e7c5191953f9b15539336e6f36d9037c1d2e92e80c13d733697cb93d Eu/POTCAR             
   COPYR  = (c) Copyright 23Dec2003 Georg Kresse                                                    
   COPYR  = This file is part of the software VASP. Any use, copying, and all other rights are regul
   COPYR  = If you do not have a valid VASP license, you may not use, copy or distribute this file. 
   VRHFIN =Eu : [core=Kr4d]                                                                         
   LEXCH  = PE                                                                                      
   EATOM  =  2619.8085 eV,  192.5505 Ry                                                             
                                                                                                    
   TITEL  = PAW_PBE Eu 23Dec2003                                                                    
   LULTRA =        F    use ultrasoft PP ?                                                          
   IUNSCR =        1    unscreen: 0-lin 1-nonlin 2-no                                               
   RPACOR =    2.300    partial core radius                                                         
   POMASS =  151.965; ZVAL   =   17.000    mass and valenz                                          
   RCORE  =    2.800    outmost cutoff radius                                                       
   RWIGS  =    2.800; RWIGS  =    1.482    wigner-seitz radius (au A)                               
   ENMAX  =  249.668; ENMIN  =  187.251 eV                                                          
   RCLOC  =    2.308    cutoff for local pot                                                        
   LCOR   =        T    correct aug charges                                                         
   LPAW   =        T    paw PP                                                                      
   EAUG   =  549.628                                                                                
   DEXC   =    0.000                                                                                
   RMAX   =    2.870    core radius for proj-oper                                                   
   RAUG   =    1.300    factor for augmentation sphere                                              
   RDEP   =    2.887    radius for radial grids                                                     
   RDEPT  =    2.221    core radius for aug-charge                                                  
                                                                                                    
   Atomic configuration                                                                             
   14 entries                                                                                       
     n  l   j            E        occ.                                                              
     1  0  0.50    -48354.7667   2.0000                                                             
     2  0  0.50     -7939.6472   2.0000                                                             
     2  1  1.50     -7072.6637   6.0000                                                             
     3  0  0.50     -1747.1875   2.0000                                                             
     3  1  1.50     -1477.5221   6.0000                                                             
     3  2  2.50     -1117.4686  10.0000                                                             
     4  0  0.50      -346.8682   2.0000                                                             
     4  1  1.50      -258.1962   6.0000                                                             
     4  2  2.50      -134.7724  10.0000                                                             
     5  0  0.50       -44.6510   2.0000                                                             
     6  0  0.50        -3.6227   2.0000                                                             
     5  1  1.50       -23.7639   6.0000                                                             
     5  2  2.50        -1.3130   0.0000                                                             
     4  3  2.50        -2.7310   7.0000                                                             
   Description                                                                                      
     l       E           TYP  RCUT    TYP  RCUT                                                     
     0    -44.6510453     23  2.400                                                                 
     0     -3.6226685     23  2.400                                                                 
     1    -23.7638687     23  2.400                                                                 
     1     27.2116520     23  2.400                                                                 
     2     -1.3129622     23  2.500                                                                 
     2     13.6058260     23  2.500                                                                 
     3     -2.7309948     23  2.800                                                                 
     3     -3.4014565     23  2.800                                                                 
  local pseudopotential read in
  partial core-charges read in
  partial kinetic energy density read in
  atomic valenz-charges read in
  non local Contribution for L=            0  read in
    real space projection operators read in
  non local Contribution for L=            0  read in
    real space projection operators read in
  non local Contribution for L=            1  read in
    real space projection operators read in
  non local Contribution for L=            1  read in
    real space projection operators read in
  non local Contribution for L=            2  read in
    real space projection operators read in
  non local Contribution for L=            2  read in
    real space projection operators read in
  non local Contribution for L=            3  read in
    real space projection operators read in
  non local Contribution for L=            3  read in
    real space projection operators read in
    PAW grid and wavefunctions read in
 
   number of l-projection  operators is LMAX  =            8
   number of lm-projection operators is LMMAX =           32
 
 POTCAR:    PAW_PBE Cu_pv 06Sep2000               
   SHA256 =  cb7b504e2ea725fe1f25c85a9ac77d4012ce94cd394135b722c4e25ec297f1cb Cu_pv/POTCAR          
   COPYR  = (c) Copyright 06Sep2000 Georg Kresse                                                    
   COPYR  = This file is part of the software VASP. Any use, copying, and all other rights are regul
   COPYR  = If you do not have a valid VASP license, you may not use, copy or distribute this file. 
   VRHFIN =Cu: d10 p1                                                                               
   LEXCH  = PE                                                                                      
   EATOM  =  4120.1201 eV,  302.8203 Ry                                                             
                                                                                                    
   TITEL  = PAW_PBE Cu_pv 06Sep2000                                                                 
   LULTRA =        F    use ultrasoft PP ?                                                          
   IUNSCR =        1    unscreen: 0-lin 1-nonlin 2-no                                               
   RPACOR =    1.500    partial core radius                                                         
   POMASS =   63.546; ZVAL   =   17.000    mass and valenz                                          
   RCORE  =    2.000    outmost cutoff radius                                                       
   RWIGS  =    2.000; RWIGS  =    1.058    wigner-seitz radius (au A)                               
   ENMAX  =  368.648; ENMIN  =  276.486 eV                                                          
   RCLOC  =    1.304    cutoff for local pot                                                        
   LCOR   =        T    correct aug charges                                                         
   LPAW   =        T    paw PP                                                                      
   EAUG   =  758.233                                                                                
   DEXC   =    0.000                                                                                
   RMAX   =    2.046    core radius for proj-oper                                                   
   RAUG   =    1.300    factor for augmentation sphere                                              
   RDEP   =    2.025    radius for radial grids                                                     
   RDEPT  =    1.558    core radius for aug-charge                                                  
                                                                                                    
   Atomic configuration                                                                             
    8 entries                                                                                       
     n  l   j            E        occ.                                                              
     1  0  0.50     -8850.2467   2.0000                                                             
     2  0  0.50     -1062.3498   2.0000                                                             
     2  1  1.50      -916.8226   6.0000                                                             
     3  0  0.50      -114.6929   2.0000                                                             
     3  1  1.50       -72.1325   6.0000                                                             
     3  2  2.50        -5.0394  10.0000                                                             
     4  0  0.50        -4.6097   1.0000                                                             
     4  3  2.50        -1.3606   0.0000                                                             
   Description                                                                                      
     l       E           TYP  RCUT    TYP  RCUT                                                     
     1    -72.1324777     23  1.700                                                                 
     1     -1.3605826     23  1.700                                                                 
     2     -5.0393776     23  2.000                                                                 
     2     -6.3999602     23  2.000                                                                 
     0     -4.6097062     23  1.800                                                                 
     0     14.1620818     23  1.800                                                                 
  local pseudopotential read in
  partial core-charges read in
  partial kinetic energy density read in
  atomic valenz-charges read in
  non local Contribution for L=            1  read in
    real space projection operators read in
  non local Contribution for L=            1  read in
    real space projection operators read in
  non local Contribution for L=            2  read in
    real space projection operators read in
  non local Contribution for L=            2  read in
    real space projection operators read in
  non local Contribution for L=            0  read in
    real space projection operators read in
  non local Contribution for L=            0  read in
    real space projection operators read in
    PAW grid and wavefunctions read in
 
   number of l-projection  operators is LMAX  =            6
   number of lm-projection operators is LMMAX =           18
 
 POTCAR:    PAW_PBE Cl 06Sep2000                  
   SHA256 =  9f1b6e6ed4247ac726a768b330d26d7667cc3c95a39ff49c1d064c2d9dcce931 Cl/POTCAR             
   COPYR  = (c) Copyright 06Sep2000 Georg Kresse                                                    
   COPYR  = This file is part of the software VASP. Any use, copying, and all other rights are regul
   COPYR  = If you do not have a valid VASP license, you may not use, copy or distribute this file. 
   VRHFIN =Cl: s2p5                                                                                 
   LEXCH  = PE                                                                                      
   EATOM  =   409.7259 eV,   30.1140 Ry                                                             
                                                                                                    
   TITEL  = PAW_PBE Cl 06Sep2000                                                                    
   LULTRA =        F    use ultrasoft PP ?                                                          
   IUNSCR =        1    unscreen: 0-lin 1-nonlin 2-no                                               
   RPACOR =    1.500    partial core radius                                                         
   POMASS =   35.453; ZVAL   =    7.000    mass and valenz                                          
   RCORE  =    1.900    outmost cutoff radius                                                       
   RWIGS  =    2.100; RWIGS  =    1.111    wigner-seitz radius (au A)                               
   ENMAX  =  262.472; ENMIN  =  196.854 eV                                                          
   ICORE  =        2    local potential                                                             
   LCOR   =        T    correct aug charges                                                         
   LPAW   =        T    paw PP                                                                      
   EAUG   =  356.192                                                                                
   DEXC   =    0.000                                                                                
   RMAX   =    1.945    core radius for proj-oper                                                   
   RAUG   =    1.300    factor for augmentation sphere                                              
   RDEP   =    2.020    radius for radial grids                                                     
   RDEPT  =    1.678    core radius for aug-charge                                                  
                                                                                                    
   Atomic configuration                                                                             
    6 entries                                                                                       
     n  l   j            E        occ.                                                              
     1  0  0.50     -2751.1850   2.0000                                                             
     2  0  0.50      -252.6861   2.0000                                                             
     2  1  1.50      -191.6157   6.0000                                                             
     3  0  0.50       -20.6916   2.0000                                                             
     3  1  0.50        -8.5949   5.0000                                                             
     3  2  1.50        -8.1635   0.0000                                                             
   Description                                                                                      
     l       E           TYP  RCUT    TYP  RCUT                                                     
     0    -20.6915656     23  1.900                                                                 
     0    -22.0521482     23  1.900                                                                 
     1     -8.5948577     23  1.900                                                                 
     1     -5.3847331     23  1.900                                                                 
     2     -8.1634956     23  1.900                                                                 
  local pseudopotential read in
  partial core-charges read in
  partial kinetic energy density read in
  atomic valenz-charges read in
  non local Contribution for L=            0  read in
    real space projection operators read in
  non local Contribution for L=            0  read in
    real space projection operators read in
  non local Contribution for L=            1  read in
    real space projection operators read in
  non local Contribution for L=            1  read in
    real space projection operators read in
    PAW grid and wavefunctions read in
 
   number of l-projection  operators is LMAX  =            4
   number of lm-projection operators is LMMAX =            8
 
 Optimization of the real space projectors (new method)

 maximal supplied QI-value         = 17.01
 optimisation between [QCUT,QGAM] = [ 11.57, 23.30] = [ 37.45,152.03] Ry 
 Optimized for a Real-space Cutoff    1.45 Angstroem

   l    n(q)    QCUT    max X(q) W(low)/X(q) W(high)/X(q)  e(spline) 
   1     10    11.565     4.940    0.87E-04    0.13E-03    0.13E-06
   1     10    11.565     6.253    0.13E-03    0.19E-03    0.20E-06
   0     10    11.565    37.438    0.53E-04    0.73E-05    0.79E-07
   0     10    11.565     9.606    0.27E-04    0.60E-05    0.56E-07
 Optimization of the real space projectors (new method)

 maximal supplied QI-value         = 13.42
 optimisation between [QCUT,QGAM] = [ 11.67, 23.35] = [ 38.16,152.62] Ry 
 Optimized for a Real-space Cutoff    1.63 Angstroem

   l    n(q)    QCUT    max X(q) W(low)/X(q) W(high)/X(q)  e(spline) 
   0     11    11.673    10.400    0.14E-04    0.18E-05    0.24E-07
   0     11    11.673    10.768    0.21E-04    0.32E-05    0.49E-07
   1     11    11.673     4.094    0.40E-05    0.13E-04    0.93E-07
   1     11    11.673     4.009    0.11E-04    0.46E-04    0.33E-06
   2     10    11.673    29.030    0.79E-04    0.60E-04    0.70E-06
   2     10    11.673    19.941    0.80E-04    0.60E-04    0.71E-06
   3     10    11.673    88.889    0.23E-03    0.29E-03    0.30E-06
   3     10    11.673    76.102    0.23E-03    0.30E-03    0.30E-06
 Optimization of the real space projectors (new method)

 maximal supplied QI-value         = 18.90
 optimisation between [QCUT,QGAM] = [ 11.53, 23.24] = [ 37.21,151.29] Ry 
 Optimized for a Real-space Cutoff    1.36 Angstroem

   l    n(q)    QCUT    max X(q) W(low)/X(q) W(high)/X(q)  e(spline) 
   1      9    11.527     3.172    0.21E-04    0.38E-04    0.11E-06
   1      9    11.527     4.083    0.67E-04    0.79E-04    0.20E-06
   2      9    11.527    65.342    0.13E-03    0.28E-03    0.26E-06
   2      9    11.527    61.381    0.13E-03    0.29E-03    0.26E-06
   0      9    11.527    65.742    0.32E-04    0.21E-04    0.72E-07
   0      9    11.527    30.431    0.28E-04    0.19E-04    0.65E-07
 Optimization of the real space projectors (new method)

 maximal supplied QI-value         = 19.84
 optimisation between [QCUT,QGAM] = [ 11.51, 23.22] = [ 37.09,150.92] Ry 
 Optimized for a Real-space Cutoff    1.21 Angstroem

   l    n(q)    QCUT    max X(q) W(low)/X(q) W(high)/X(q)  e(spline) 
   0      8    11.508   168.010    0.86E-04    0.17E-03    0.49E-07
   0      8    11.508   164.674    0.84E-04    0.16E-03    0.48E-07
   1      8    11.508    69.222    0.18E-03    0.70E-04    0.97E-07
   1      8    11.508    56.786    0.18E-03    0.67E-04    0.95E-07
  PAW_PBE Na_pv 19Sep2006               :
 energy of atom  1       EATOM= -766.0439
 kinetic energy error for atom=    0.0019 (will be added to EATOM!!)
  PAW_PBE Eu 23Dec2003                  :
 energy of atom  2       EATOM=-2619.8085
 kinetic energy error for atom=    0.0015 (will be added to EATOM!!)
  PAW_PBE Cu_pv 06Sep2000               :
 energy of atom  3       EATOM=-4120.1201
 kinetic energy error for atom=    0.0541 (will be added to EATOM!!)
  PAW_PBE Cl 06Sep2000                  :
 energy of atom  4       EATOM= -409.7259
 kinetic energy error for atom=    0.0023 (will be added to EATOM!!)
 
 
 POSCAR: Na2 Eu1 Cu1 Cl6
  positions in direct lattice
  No initial velocities read in
 exchange correlation table for  LEXCH =        8
   RHO(1)=    0.500       N(1)  =     2000
   RHO(2)=  100.500       N(2)  =     4000

 VTST: version 4.2, (08/11/21)

 CHAIN: initializing optimizer
 
 OPT: Using VASP Dynamics algorithm
 CHAIN: Read ICHAIN             0
 
 POSCAR: Na2 Eu1 Cu1 Cl6
  positions in direct lattice
  No initial velocities read in
 


--------------------------------------------------------------------------------------------------------


 ion  position               nearest neighbor table
   1  0.750  0.750  0.750-
   2  0.250  0.250  0.250-
   3  0.000  0.000  0.000-   5 2.72   6 2.72   7 2.72   8 2.72   9 2.72  10 2.72
   4  0.500  0.500  0.500-   5 2.46   6 2.46   7 2.46   8 2.46   9 2.46  10 2.46
   5  0.738  0.262  0.262-   4 2.46   3 2.72
   6  0.262  0.262  0.738-   4 2.46   3 2.72
   7  0.262  0.738  0.738-   4 2.46   3 2.72
   8  0.262  0.738  0.262-   4 2.46   3 2.72
   9  0.738  0.262  0.738-   4 2.46   3 2.72
  10  0.738  0.738  0.262-   4 2.46   3 2.72
 
  LATTYP: Found a face centered cubic cell.
 ALAT       =    10.3568200000
  
  Lattice vectors:
  
 A1 = (   0.0000000000,   5.1784100000,   5.1784100000)
 A2 = (   5.1784100000,   0.0000000000,   5.1784100000)
 A3 = (   5.1784100000,   5.1784100000,   0.0000000000)


Analysis of symmetry for initial positions (statically):
=====================================================================
 Subroutine PRICEL returns:
 Original cell was already a primitive cell.
 

 Routine SETGRP: Setting up the symmetry group for a 
 face centered cubic supercell.


 Subroutine GETGRP returns: Found 48 space group operations
 (whereof 48 operations were pure point group operations)
 out of a pool of 48 trial point group operations.


The static configuration has the point symmetry O_h .


Analysis of symmetry for dynamics (positions and initial velocities):
=====================================================================
 Subroutine PRICEL returns:
 Original cell was already a primitive cell.
 

 Routine SETGRP: Setting up the symmetry group for a 
 face centered cubic supercell.


 Subroutine GETGRP returns: Found 48 space group operations
 (whereof 48 operations were pure point group operations)
 out of a pool of 48 trial point group operations.


The dynamic configuration has the point symmetry O_h .


Analysis of structural, dynamic, and magnetic symmetry:
=====================================================================
 Subroutine PRICEL returns:
 Original cell was already a primitive cell.
 

 Routine SETGRP: Setting up the symmetry group for a 
 face centered cubic supercell.


 Subroutine GETGRP returns: Found 48 space group operations
 (whereof 48 operations were pure point group operations)
 out of a pool of 48 trial point group operations.


The overall configuration has the point symmetry O_h .


 Subroutine INISYM returns: Found 48 space group operations
 (whereof 48 operations are pure point group operations),
 and found     1 'primitive' translations


----------------------------------------------------------------------------------------

                                     Primitive cell                                     

  volume of cell :     277.7278

  direct lattice vectors                    reciprocal lattice vectors
     0.000000000  5.178410000  5.178410000    -0.096554734  0.096554734  0.096554734
     5.178410000  0.000000000  5.178410000     0.096554734 -0.096554734  0.096554734
     5.178410000  5.178410000  0.000000000     0.096554734  0.096554734 -0.096554734

  length of vectors
     7.323377654  7.323377654  7.323377654     0.167237705  0.167237705  0.167237705

  position of ions in fractional coordinates (direct lattice)
     0.750000000  0.750000000  0.750000000
     0.250000000  0.250000000  0.250000000
     0.000000000  0.000000000  0.000000000
     0.500000000  0.500000000  0.500000000
     0.737544000  0.262456000  0.262456000
     0.262456000  0.262456000  0.737544000
     0.262456000  0.737544000  0.737544000
     0.262456000  0.737544000  0.262456000
     0.737544000  0.262456000  0.737544000
     0.737544000  0.737544000  0.262456000

  ion indices of the primitive-cell ions
   primitive index   ion index
                 1           1
                 2           2
                 3           3
                 4           4
                 5           5
                 6           6
                 7           7
                 8           8
                 9           9
                10          10

----------------------------------------------------------------------------------------

 
 
 KPOINTS: Kpoints from vasprun.xml                

Automatic generation of k-mesh.
 Grid dimensions read from file:
 generate k-points for:    4    4    4

 Generating k-lattice:

  Cartesian coordinates                     Fractional coordinates (reciprocal lattice)
    -0.024138683  0.024138683  0.024138683     0.250000000  0.000000000  0.000000000
     0.024138683 -0.024138683  0.024138683     0.000000000  0.250000000 -0.000000000
     0.024138683  0.024138683 -0.024138683    -0.000000000 -0.000000000  0.250000000

  Length of vectors
     0.041809426  0.041809426  0.041809426

  Shift w.r.t. Gamma in fractional coordinates (k-lattice)
     0.000000000  0.000000000  0.000000000

 TETIRR: Found      9 inequivalent tetrahedra from      384
 
 Subroutine IBZKPT returns following result:
 ===========================================
 
 Found      8 irreducible k-points:
 
 Following reciprocal coordinates:
            Coordinates               Weight
  0.000000  0.000000  0.000000      1.000000
  0.250000  0.000000  0.000000      8.000000
  0.500000  0.000000  0.000000      4.000000
  0.250000  0.250000  0.000000      6.000000
  0.500000  0.250000  0.000000     24.000000
 -0.250000  0.250000  0.000000     12.000000
  0.500000  0.500000  0.000000      3.000000
 -0.250000  0.500000  0.250000      6.000000
 
 Following cartesian coordinates:
            Coordinates               Weight
  0.000000  0.000000  0.000000      1.000000
 -0.024139  0.024139  0.024139      8.000000
 -0.048277  0.048277  0.048277      4.000000
  0.000000  0.000000  0.048277      6.000000
 -0.024139  0.024139  0.072416     24.000000
  0.048277 -0.048277  0.000000     12.000000
  0.000000  0.000000  0.096555      3.000000
  0.096555 -0.048277  0.000000      6.000000
 


--------------------------------------------------------------------------------------------------------




 Dimension of arrays:
   k-points           NKPTS =      8   k-points in BZ     NKDIM =      8   number of bands    NBANDS=     60
   number of dos      NEDOS =    301   number of ions     NIONS =     10
   non local maximal  LDIM  =      8   non local SUM 2l+1 LMDIM =     32
   total plane-waves  NPLWV = 157464
   max r-space proj   IRMAX =  10282   max aug-charges    IRDMAX= 259472
   dimension x,y,z NGX =    54 NGY =   54 NGZ =   54
   dimension x,y,z NGXF=   108 NGYF=  108 NGZF=  108
   support grid    NGXF=   216 NGYF=  216 NGZF=  216
   ions per type =               2   1   1   6
   NGX,Y,Z   is equivalent  to a cutoff of  12.26, 12.26, 12.26 a.u.
   NGXF,Y,Z  is equivalent  to a cutoff of  24.52, 24.52, 24.52 a.u.

 SYSTEM =  unknown system                          
 POSCAR =  Na2 Eu1 Cu1 Cl6                         

 Startparameter for this run:
   NWRITE =      2    write-flag & timer
   PREC   = accura    normal or accurate (medium, high low for compatibility)
   ISTART =      0    job   : 0-new  1-cont  2-samecut
   ICHARG =      0    charge: 1-file 2-atom 10-const
   ISPIN  =      2    spin polarized calculation?
   LNONCOLLINEAR =      F non collinear calculations
   LSORBIT =      F    spin-orbit coupling
   INIWAV =      1    electr: 0-lowe 1-rand  2-diag
   LASPH  =      T    aspherical Exc in radial PAW
 Electronic Relaxation 1
   ENCUT  =  520.0 eV  38.22 Ry    6.18 a.u.  13.62 13.62 13.62*2*pi/ulx,y,z
   ENINI  =  520.0     initial cutoff
   ENAUG  =  758.2 eV  augmentation charge cutoff
   NELM   =   1000;   NELMIN=  2; NELMDL= -5     # of ELM steps 
   EDIFF  = 0.5E-03   stopping-criterion for ELM
   LREAL  =      T    real-space projection
   NLSPLINE    = F    spline interpolate recip. space projectors
   LCOMPAT=      F    compatible to vasp.4.4
   GGA_COMPAT  = T    GGA compatible to vasp.4.4-vasp.4.6
   LMAXPAW     = -100 max onsite density
   LMAXMIX     =    2 max onsite mixed and CHGCAR
   VOSKOWN=      0    Vosko Wilk Nusair interpolation
   ROPT   =   -0.00025  -0.00025  -0.00025  -0.00025
 Ionic relaxation
   EDIFFG = 0.5E-02   stopping-criterion for IOM
   NSW    =      0    number of steps for IOM
   NBLOCK =      1;   KBLOCK =      1    inner block; outer block 
   IBRION =     -1    ionic relax: 0-MD 1-quasi-New 2-CG
   NFREE  =      0    steps in history (QN), initial steepest desc. (CG)
   ISIF   =      3    stress and relaxation
   IWAVPR =     10    prediction:  0-non 1-charg 2-wave 3-comb
   ISYM   =      2    0-nonsym 1-usesym 2-fastsym
   LCORR  =      T    Harris-Foulkes like correction to forces

   POTIM  = 0.5000    time-step for ionic-motion
   TEIN   =    0.0    initial temperature
   TEBEG  =    0.0;   TEEND  =   0.0 temperature during run
   SMASS  =  -3.00    Nose mass-parameter (am)
   estimated Nose-frequenzy (Omega)   =  0.10E-29 period in steps = 0.13E+47 mass=  -0.123E-26a.u.
   SCALEE = 1.0000    scale energy and forces
   NPACO  =    256;   APACO  = 10.0  distance and # of slots for P.C.
   PSTRESS=    0.0 pullay stress

  Mass of Ions in am
   POMASS =  22.99151.97 63.55 35.45
  Ionic Valenz
   ZVAL   =   7.00 17.00 17.00  7.00
  Atomic Wigner-Seitz radii
   RWIGS  =  -1.00 -1.00 -1.00 -1.00
  virtual crystal weights 
   VCA    =   1.00  1.00  1.00  1.00
   NELECT =      90.0000    total number of electrons
   NUPDOWN=      -1.0000    fix difference up-down

 DOS related values:
   EMIN   =  10.00;   EMAX   =-10.00  energy-range for DOS
   EFERMI =   0.00
   ISMEAR =    -5;   SIGMA  =   0.05  broadening in eV -4-tet -1-fermi 0-gaus

 Electronic relaxation 2 (details)
   IALGO  =     38    algorithm
   LDIAG  =      T    sub-space diagonalisation (order eigenvalues)
   LSUBROT=      F    optimize rotation matrix (better conditioning)
   TURBO    =      0    0=normal 1=particle mesh
   IRESTART =      0    0=no restart 2=restart with 2 vectors
   NREBOOT  =      0    no. of reboots
   NMIN     =      0    reboot dimension
   EREF     =   0.00    reference energy to select bands
   IMIX   =      4    mixing-type and parameters
     AMIX     =   0.40;   BMIX     =  1.00
     AMIX_MAG =   1.60;   BMIX_MAG =  1.00
     AMIN     =   0.10
     WC   =   100.;   INIMIX=   1;  MIXPRE=   1;  MAXMIX= -45

 Intra band minimization:
   WEIMIN = 0.0000     energy-eigenvalue tresh-hold
   EBREAK =  0.21E-05  absolut break condition
   DEPER  =   0.30     relativ break condition  

   TIME   =   0.40     timestep for ELM

  volume/ion in A,a.u.               =      27.77       187.42
  Fermi-wavevector in a.u.,A,eV,Ry     =   1.124474  2.124947 17.203760  1.264441
  Thomas-Fermi vector in A             =   2.261146
 
 Write flags
   LWAVE        =      F    write WAVECAR
   LDOWNSAMPLE  =      F    k-point downsampling of WAVECAR
   LCHARG       =      T    write CHGCAR
   LVTOT        =      F    write LOCPOT, total local potential
   LVHAR        =      T    write LOCPOT, Hartree potential only
   LELF         =      T    write electronic localiz. function (ELF)
   LORBIT       =     11    0 simple, 1 ext, 2 COOP (PROOUT), +10 PAW based schemes


 Dipole corrections
   LMONO  =      F    monopole corrections only (constant potential shift)
   LDIPOL =      F    correct potential (dipole corrections)
   IDIPOL =      0    1-x, 2-y, 3-z, 4-all directions 
   EPSILON=  1.0000000 bulk dielectric constant

 Exchange correlation treatment:
   GGA     =    --    GGA type
   LEXCH   =     8    internal setting for exchange type
   LIBXC   =     F    Libxc                    
   VOSKOWN =     0    Vosko Wilk Nusair interpolation
   LHFCALC =     F    Hartree Fock is set to
   LHFONE  =     F    Hartree Fock one center treatment
   AEXX    =    0.0000 exact exchange contribution

 Linear response parameters
   LEPSILON=     F    determine dielectric tensor
   LRPA    =     F    only Hartree local field effects (RPA)
   LNABLA  =     F    use nabla operator in PAW spheres
   LVEL    =     F    velocity operator in full k-point grid
   CSHIFT  =0.1000    complex shift for real part using Kramers Kronig
   OMEGAMAX=  -1.0    maximum frequency
   DEG_THRESHOLD= 0.2000000E-02 threshold for treating states as degnerate
   RTIME   =   -0.100 relaxation time in fs
  (WPLASMAI=    0.000 imaginary part of plasma frequency in eV, 0.658/RTIME)
   DFIELD  = 0.0000000 0.0000000 0.0000000 field for delta impulse in time
 
  Optional k-point grid parameters
   LKPOINTS_OPT  =     F    use optional k-point grid
   KPOINTS_OPT_MODE=     1    mode for optional k-point grid
 
 Orbital magnetization related:
   ORBITALMAG=     F  switch on orbital magnetization
   LCHIMAG   =     F  perturbation theory with respect to B field
   DQ        =  0.001000  dq finite difference perturbation B field
   LLRAUG    =     F  two centre corrections for induced B field



--------------------------------------------------------------------------------------------------------


 Static calculation
 charge density and potential will be updated during run
 spin polarized calculation
 Variant of blocked Davidson
 Davidson routine will perform the subspace rotation
 perform sub-space diagonalisation
    after iterative eigenvector-optimisation
 modified Broyden-mixing scheme, WC =      100.0
 initial mixing is a Kerker type mixing with AMIX =  0.4000 and BMIX =      1.0000
 Hartree-type preconditioning will be used
 using additional bands            15
 real space projection scheme for non local part
 use partial core corrections
 calculate Harris-corrections to forces 
   (improved forces if not selfconsistent)
 use gradient corrections 
 use of overlap-Matrix (Vanderbilt PP)
 Fermi weights with tetrahedron method with Bloechl corrections


--------------------------------------------------------------------------------------------------------


  energy-cutoff  :      520.00
  volume of cell :      277.73
      direct lattice vectors                 reciprocal lattice vectors
     0.000000000  5.178410000  5.178410000    -0.096554734  0.096554734  0.096554734
     5.178410000  0.000000000  5.178410000     0.096554734 -0.096554734  0.096554734
     5.178410000  5.178410000  0.000000000     0.096554734  0.096554734 -0.096554734

  length of vectors
     7.323377654  7.323377654  7.323377654     0.167237705  0.167237705  0.167237705


 
 k-points in units of 2pi/SCALE and weight: Kpoints from vasprun.xml                
   0.00000000  0.00000000  0.00000000       0.016
  -0.02413868  0.02413868  0.02413868       0.125
  -0.04827737  0.04827737  0.04827737       0.063
   0.00000000  0.00000000  0.04827737       0.094
  -0.02413868  0.02413868  0.07241605       0.375
   0.04827737 -0.04827737  0.00000000       0.188
   0.00000000  0.00000000  0.09655473       0.047
   0.09655473 -0.04827737  0.00000000       0.094
 
 k-points in reciprocal lattice and weights: Kpoints from vasprun.xml                
   0.00000000  0.00000000  0.00000000       0.016
   0.25000000  0.00000000  0.00000000       0.125
   0.50000000  0.00000000  0.00000000       0.063
   0.25000000  0.25000000  0.00000000       0.094
   0.50000000  0.25000000  0.00000000       0.375
  -0.25000000  0.25000000  0.00000000       0.188
   0.50000000  0.50000000  0.00000000       0.047
  -0.25000000  0.50000000  0.25000000       0.094
 
 position of ions in fractional coordinates (direct lattice) 
   0.75000000  0.75000000  0.75000000
   0.25000000  0.25000000  0.25000000
   0.00000000  0.00000000  0.00000000
   0.50000000  0.50000000  0.50000000
   0.73754400  0.26245600  0.26245600
   0.26245600  0.26245600  0.73754400
   0.26245600  0.73754400  0.73754400
   0.26245600  0.73754400  0.26245600
   0.73754400  0.26245600  0.73754400
   0.73754400  0.73754400  0.26245600
 
 position of ions in cartesian coordinates  (Angst):
   7.76761500  7.76761500  7.76761500
   2.58920500  2.58920500  2.58920500
   0.00000000  0.00000000  0.00000000
   5.17841000  5.17841000  5.17841000
   2.71820955  5.17841000  5.17841000
   5.17841000  5.17841000  2.71820955
   7.63861045  5.17841000  5.17841000
   5.17841000  2.71820955  5.17841000
   5.17841000  7.63861045  5.17841000
   5.17841000  5.17841000  7.63861045
 


--------------------------------------------------------------------------------------------------------


 k-point   1 :   0.0000 0.0000 0.0000  plane waves:    7391
 k-point   2 :   0.2500 0.0000 0.0000  plane waves:    7480
 k-point   3 :   0.5000 0.0000 0.0000  plane waves:    7498
 k-point   4 :   0.2500 0.2500 0.0000  plane waves:    7523
 k-point   5 :   0.5000 0.2500 0.0000  plane waves:    7481
 k-point   6 :  -0.2500 0.2500 0.0000  plane waves:    7486
 k-point   7 :   0.5000 0.5000 0.0000  plane waves:    7488
 k-point   8 :  -0.2500 0.5000 0.2500  plane waves:    7456

 maximum and minimum number of plane-waves per node :      7523     7391

 maximum number of plane-waves:      7523
 maximum index in each direction: 
   IXMAX=   13   IYMAX=   13   IZMAX=   13
   IXMIN=  -14   IYMIN=  -14   IZMIN=  -13


 serial   3D FFT for wavefunctions
 parallel 3D FFT for charge:
    minimum data exchange during FFTs selected (reduces bandwidth)


 total amount of memory used by VASP MPI-rank0   158878. kBytes
=======================================================================

   base      :      30000. kBytes
   nonlr-proj:       8204. kBytes
   fftplans  :      46964. kBytes
   grid      :      43390. kBytes
   one-center:        983. kBytes
   wavefun   :      29337. kBytes
 
     INWAV:  cpu time      0.0001: real time      0.0004
 Broyden mixing: mesh for mixing (old mesh)
   NGX = 27   NGY = 27   NGZ = 27
  (NGX  =108   NGY  =108   NGZ  =108)
  gives a total of  19683 points

 charge density for first step will be calculated from the start-wavefunctions


--------------------------------------------------------------------------------------------------------


 Maximum index for non-local projection operator         10005
 Maximum index for augmentation-charges         63025 (set IRDMAX)


--------------------------------------------------------------------------------------------------------


 initial charge from wavefunction
 First call to EWALD:  gamma=   0.272
 Maximum number of real-space cells 3x 3x 3
 Maximum number of reciprocal cells 3x 3x 3

    FEWALD:  cpu time      0.0015: real time      0.0015


--------------------------------------- Iteration      1(   1)  ---------------------------------------


    POTLOK:  cpu time      0.1469: real time      0.1883
    SETDIJ:  cpu time      1.2552: real time      1.2557
     EDDAV:  cpu time      1.5696: real time      1.5714
 BZINTS: Fermi energy:   -3.585983;   90.000000 electrons
         Band energy:-0.112821E+05;  BLOECHL correction:   -1.659768
       DOS:  cpu time      0.0048: real time      0.0048
    --------------------------------------------
      LOOP:  cpu time      2.9765: real time      3.0202

 eigenvalue-minimisations  :  3408
 total energy-change (2. order) :-0.5814659E+04  (-0.1390072E+05)
 number of electron      90.0000000 magnetization       0.0000000
 augmentation part        0.6734044 magnetization       0.0719477

 Free energy of the ion-electron system (eV)
  ---------------------------------------------------
  alpha Z        PSCENC =       218.54217245
  Ewald energy   TEWEN  =     -5467.41617839
  -Hartree energ DENC   =      -223.50937151
  -exchange      EXHF   =         0.00000000
  -V(xc)+E(xc)   XCENC  =       210.86411801
  PAW double counting   =    107045.10345957  -107046.48876524
  entropy T*S    EENTRO =         0.00000000
  eigenvalues    EBANDS =    -11282.05322368
  atomic energy  EATOM  =     10730.29830442
  Solvation  Ediel_sol  =         0.00000000
  ---------------------------------------------------
  free energy    TOTEN  =     -5814.65948436 eV

  energy without entropy =    -5814.65948436  energy(sigma->0) =    -5814.65948436


--------------------------------------------------------------------------------------------------------




--------------------------------------- Iteration      1(   2)  ---------------------------------------


     EDDAV:  cpu time      1.2303: real time      1.2318
 BZINTS: Fermi energy:  -46.065127;   90.000000 electrons
         Band energy:-0.133674E+05;  BLOECHL correction:   -0.144534
       DOS:  cpu time      0.0044: real time      0.0044
    --------------------------------------------
      LOOP:  cpu time      1.2347: real time      1.2362

 eigenvalue-minimisations  :  2652
 total energy-change (2. order) :-0.2085380E+04  (-0.2001720E+04)
 number of electron      90.0000000 magnetization       0.0000000
 augmentation part        0.6734044 magnetization       0.0719477

 Free energy of the ion-electron system (eV)
  ---------------------------------------------------
  alpha Z        PSCENC =       218.54217245
  Ewald energy   TEWEN  =     -5467.41617839
  -Hartree energ DENC   =      -223.50937151
  -exchange      EXHF   =         0.00000000
  -V(xc)+E(xc)   XCENC  =       210.86411801
  PAW double counting   =    107045.10345957  -107046.48876524
  entropy T*S    EENTRO =         0.00000000
  eigenvalues    EBANDS =    -13367.43289306
  atomic energy  EATOM  =     10730.29830442
  Solvation  Ediel_sol  =         0.00000000
  ---------------------------------------------------
  free energy    TOTEN  =     -7900.03915375 eV

  energy without entropy =    -7900.03915375  energy(sigma->0) =    -7900.03915375


--------------------------------------------------------------------------------------------------------




--------------------------------------- Iteration      1(   3)  ---------------------------------------


     EDDAV:  cpu time      1.4245: real time      1.4261
 BZINTS: Fermi energy:  -52.515834;   90.000000 electrons
         Band energy:-0.139137E+05;  BLOECHL correction:   -0.048607
       DOS:  cpu time      0.0044: real time      0.0044
    --------------------------------------------
      LOOP:  cpu time      1.4289: real time      1.4305

 eigenvalue-minimisations  :  3168
 total energy-change (2. order) :-0.5462615E+03  (-0.5385339E+03)
 number of electron      90.0000000 magnetization       0.0000000
 augmentation part        0.6734044 magnetization       0.0719477

 Free energy of the ion-electron system (eV)
  ---------------------------------------------------
  alpha Z        PSCENC =       218.54217245
  Ewald energy   TEWEN  =     -5467.41617839
  -Hartree energ DENC   =      -223.50937151
  -exchange      EXHF   =         0.00000000
  -V(xc)+E(xc)   XCENC  =       210.86411801
  PAW double counting   =    107045.10345957  -107046.48876524
  entropy T*S    EENTRO =         0.00000000
  eigenvalues    EBANDS =    -13913.69441560
  atomic energy  EATOM  =     10730.29830442
  Solvation  Ediel_sol  =         0.00000000
  ---------------------------------------------------
  free energy    TOTEN  =     -8446.30067629 eV

  energy without entropy =    -8446.30067629  energy(sigma->0) =    -8446.30067629


--------------------------------------------------------------------------------------------------------




--------------------------------------- Iteration      1(   4)  ---------------------------------------


     EDDAV:  cpu time      1.4552: real time      1.4569
 BZINTS: Fermi energy:  -53.039271;   90.000000 electrons
         Band energy:-0.139529E+05;  BLOECHL correction:   -0.007133
       DOS:  cpu time      0.0044: real time      0.0044
    --------------------------------------------
      LOOP:  cpu time      1.4595: real time      1.4613

 eigenvalue-minimisations  :  3216
 total energy-change (2. order) :-0.3919999E+02  (-0.3893993E+02)
 number of electron      90.0000000 magnetization       0.0000000
 augmentation part        0.6734044 magnetization       0.0719477

 Free energy of the ion-electron system (eV)
  ---------------------------------------------------
  alpha Z        PSCENC =       218.54217245
  Ewald energy   TEWEN  =     -5467.41617839
  -Hartree energ DENC   =      -223.50937151
  -exchange      EXHF   =         0.00000000
  -V(xc)+E(xc)   XCENC  =       210.86411801
  PAW double counting   =    107045.10345957  -107046.48876524
  entropy T*S    EENTRO =         0.00000000
  eigenvalues    EBANDS =    -13952.89440141
  atomic energy  EATOM  =     10730.29830442
  Solvation  Ediel_sol  =         0.00000000
  ---------------------------------------------------
  free energy    TOTEN  =     -8485.50066210 eV

  energy without entropy =    -8485.50066210  energy(sigma->0) =    -8485.50066210


--------------------------------------------------------------------------------------------------------




--------------------------------------- Iteration      1(   5)  ---------------------------------------


     EDDAV:  cpu time      1.4931: real time      1.4948
 BZINTS: Fermi energy:  -53.079296;   90.000000 electrons
         Band energy:-0.139548E+05;  BLOECHL correction:   -0.000750
       DOS:  cpu time      0.0044: real time      0.0044
    CHARGE:  cpu time      0.1614: real time      0.1615
    MIXING:  cpu time      0.0028: real time      0.0028
    --------------------------------------------
      LOOP:  cpu time      1.6617: real time      1.6635

 eigenvalue-minimisations  :  3328
 total energy-change (2. order) :-0.1885020E+01  (-0.1880763E+01)
 number of electron      90.0000001 magnetization       1.6791960
 augmentation part       36.3391579 magnetization      -0.7794163

 Broyden mixing:
  rms(total) = 0.39742E+03    rms(broyden)= 0.39742E+03
  rms(prec ) = 0.40298E+03
  weight for this iteration     100.00

 Free energy of the ion-electron system (eV)
  ---------------------------------------------------
  alpha Z        PSCENC =       218.54217245
  Ewald energy   TEWEN  =     -5467.41617839
  -Hartree energ DENC   =      -223.50937151
  -exchange      EXHF   =         0.00000000
  -V(xc)+E(xc)   XCENC  =       210.86411801
  PAW double counting   =    107045.10345957  -107046.48876524
  entropy T*S    EENTRO =         0.00000000
  eigenvalues    EBANDS =    -13954.77942184
  atomic energy  EATOM  =     10730.29830442
  Solvation  Ediel_sol  =         0.00000000
  ---------------------------------------------------
  free energy    TOTEN  =     -8487.38568253 eV

  energy without entropy =    -8487.38568253  energy(sigma->0) =    -8487.38568253


--------------------------------------------------------------------------------------------------------




--------------------------------------- Iteration      1(   6)  ---------------------------------------


    POTLOK:  cpu time      0.0091: real time      0.0102
    SETDIJ:  cpu time      1.2614: real time      1.2621
     EDDAV:  cpu time      1.2007: real time      1.2014
 BZINTS: Fermi energy:   -9.126772;   90.000000 electrons
         Band energy:-0.382950E+04;  BLOECHL correction:   -0.052963
       DOS:  cpu time      0.0046: real time      0.0046
    CHARGE:  cpu time      0.1556: real time      0.1557
    MIXING:  cpu time      0.0049: real time      0.0079
    --------------------------------------------
      LOOP:  cpu time      2.6363: real time      2.6419

 eigenvalue-minimisations  :  2568
 total energy-change (2. order) : 0.7629540E+04  (-0.1654891E+04)
 number of electron      90.0000005 magnetization       1.2781606
 augmentation part       26.8484782 magnetization       0.3866299

 Broyden mixing:
  rms(total) = 0.11762E+03    rms(broyden)= 0.11762E+03
  rms(prec ) = 0.12009E+03
  weight for this iteration     100.00

 eigenvalues of (default mixing * dielectric matrix)
  average eigenvalue GAMMA=   0.8416
  0.8416

 Free energy of the ion-electron system (eV)
  ---------------------------------------------------
  alpha Z        PSCENC =       218.54217245
  Ewald energy   TEWEN  =     -5467.41617839
  -Hartree energ DENC   =     -2377.36887257
  -exchange      EXHF   =         0.00000000
  -V(xc)+E(xc)   XCENC  =       283.17328473
  PAW double counting   =   4992534.77909083 -4992950.34973485
  entropy T*S    EENTRO =         0.00000000
  eigenvalues    EBANDS =     -3829.50329088
  atomic energy  EATOM  =     10730.29830442
  Solvation  Ediel_sol  =         0.00000000
  ---------------------------------------------------
  free energy    TOTEN  =      -857.84522426 eV

  energy without entropy =     -857.84522426  energy(sigma->0) =     -857.84522426


--------------------------------------------------------------------------------------------------------




--------------------------------------- Iteration      1(   7)  ---------------------------------------


    POTLOK:  cpu time      0.0099: real time      0.0104
    SETDIJ:  cpu time      1.2576: real time      1.2584
     EDDAV:  cpu time      1.3882: real time      1.3889
 BZINTS: Fermi energy:   -2.949068;   90.000000 electrons
         Band energy:-0.241757E+04;  BLOECHL correction:   -0.025208
       DOS:  cpu time      0.0044: real time      0.0044
    CHARGE:  cpu time      0.1558: real time      0.1559
    MIXING:  cpu time      0.0030: real time      0.0030
    --------------------------------------------
      LOOP:  cpu time      2.8189: real time      2.8210

 eigenvalue-minimisations  :  3040
 total energy-change (2. order) : 0.1648500E+03  (-0.7684997E+03)
 number of electron      90.0000004 magnetization       0.7344669
 augmentation part       12.8400980 magnetization       0.7321879

 Broyden mixing:
  rms(total) = 0.14881E+03    rms(broyden)= 0.14881E+03
  rms(prec ) = 0.15004E+03
  weight for this iteration     100.00

 eigenvalues of (default mixing * dielectric matrix)
  average eigenvalue GAMMA=   0.6946
  0.6946  0.6946

 Free energy of the ion-electron system (eV)
  ---------------------------------------------------
  alpha Z        PSCENC =       218.54217245
  Ewald energy   TEWEN  =     -5467.41617839
  -Hartree energ DENC   =     -3464.71409617
  -exchange      EXHF   =         0.00000000
  -V(xc)+E(xc)   XCENC  =       312.07694899
  PAW double counting   =   9475873.46864811 -9476477.68144693
  entropy T*S    EENTRO =         0.00000000
  eigenvalues    EBANDS =     -2417.56955742
  atomic energy  EATOM  =     10730.29830442
  Solvation  Ediel_sol  =         0.00000000
  ---------------------------------------------------
  free energy    TOTEN  =      -692.99520494 eV

  energy without entropy =     -692.99520494  energy(sigma->0) =     -692.99520494


--------------------------------------------------------------------------------------------------------




--------------------------------------- Iteration      1(   8)  ---------------------------------------


    POTLOK:  cpu time      0.0094: real time      0.0104
    SETDIJ:  cpu time      1.2501: real time      1.2505
     EDDAV:  cpu time      1.3375: real time      1.3382
 BZINTS: Fermi energy:  -12.806797;   90.000000 electrons
         Band energy:-0.254976E+04;  BLOECHL correction:   -0.031945
       DOS:  cpu time      0.0046: real time      0.0046
    CHARGE:  cpu time      0.1559: real time      0.1559
    MIXING:  cpu time      0.0037: real time      0.0037
    --------------------------------------------
      LOOP:  cpu time      2.7612: real time      2.7633

 eigenvalue-minimisations  :  2908
 total energy-change (2. order) : 0.2800694E+03  (-0.2055204E+03)
 number of electron      90.0000002 magnetization       1.0020254
 augmentation part       21.3419672 magnetization       0.8012463

 Broyden mixing:
  rms(total) = 0.11685E+03    rms(broyden)= 0.11685E+03
  rms(prec ) = 0.11846E+03
  weight for this iteration     100.00

 eigenvalues of (default mixing * dielectric matrix)
  average eigenvalue GAMMA=   0.5233
  0.6478  0.6478  0.2742

 Free energy of the ion-electron system (eV)
  ---------------------------------------------------
  alpha Z        PSCENC =       218.54217245
  Ewald energy   TEWEN  =     -5467.41617839
  -Hartree energ DENC   =     -3157.46693238
  -exchange      EXHF   =         0.00000000
  -V(xc)+E(xc)   XCENC  =       304.15223836
  PAW double counting   =   4948762.07080251 -4949253.34810590
  entropy T*S    EENTRO =         0.00000000
  eigenvalues    EBANDS =     -2549.75813423
  atomic energy  EATOM  =     10730.29830442
  Solvation  Ediel_sol  =         0.00000000
  ---------------------------------------------------
  free energy    TOTEN  =      -412.92583315 eV

  energy without entropy =     -412.92583315  energy(sigma->0) =     -412.92583315


--------------------------------------------------------------------------------------------------------




--------------------------------------- Iteration      1(   9)  ---------------------------------------


    POTLOK:  cpu time      0.0096: real time      0.0106
    SETDIJ:  cpu time      1.2522: real time      1.2526
     EDDAV:  cpu time      1.3206: real time      1.3213
 BZINTS: Fermi energy:   -1.766995;   90.000000 electrons
         Band energy:-0.262587E+04;  BLOECHL correction:   -0.158382
       DOS:  cpu time      0.0043: real time      0.0043
    CHARGE:  cpu time      0.1555: real time      0.1560
    MIXING:  cpu time      0.0038: real time      0.0038
    --------------------------------------------
      LOOP:  cpu time      2.7460: real time      2.7486

 eigenvalue-minimisations  :  2840
 total energy-change (2. order) :-0.7962359E+02  (-0.3226478E+03)
 number of electron      90.0000005 magnetization       1.1107519
 augmentation part       14.7477725 magnetization       1.3672627

 Broyden mixing:
  rms(total) = 0.94624E+02    rms(broyden)= 0.94624E+02
  rms(prec ) = 0.96142E+02
  weight for this iteration     100.00

 eigenvalues of (default mixing * dielectric matrix)
  average eigenvalue GAMMA=   0.5184
  0.6901  0.6901  0.3536  0.3397

 Free energy of the ion-electron system (eV)
  ---------------------------------------------------
  alpha Z        PSCENC =       218.54217245
  Ewald energy   TEWEN  =     -5467.41617839
  -Hartree energ DENC   =     -3112.27772077
  -exchange      EXHF   =         0.00000000
  -V(xc)+E(xc)   XCENC  =       306.13335739
  PAW double counting   =   3883700.38289890 -3884242.34700917
  entropy T*S    EENTRO =         0.00000000
  eigenvalues    EBANDS =     -2625.86524756
  atomic energy  EATOM  =     10730.29830442
  Solvation  Ediel_sol  =         0.00000000
  ---------------------------------------------------
  free energy    TOTEN  =      -492.54942273 eV

  energy without entropy =     -492.54942273  energy(sigma->0) =     -492.54942273


--------------------------------------------------------------------------------------------------------




--------------------------------------- Iteration      1(  10)  ---------------------------------------


    POTLOK:  cpu time      0.0096: real time      0.0103
    SETDIJ:  cpu time      1.2538: real time      1.2543
     EDDAV:  cpu time      1.4819: real time      1.4826
 BZINTS: Fermi energy:   -4.414435;   90.000000 electrons
         Band energy:-0.273497E+04;  BLOECHL correction:   -0.050433
       DOS:  cpu time      0.0043: real time      0.0043
    CHARGE:  cpu time      0.1559: real time      0.1561
    MIXING:  cpu time      0.0044: real time      0.0044
    --------------------------------------------
      LOOP:  cpu time      2.9099: real time      2.9120

 eigenvalue-minimisations  :  3312
 total energy-change (2. order) :-0.1050466E+03  (-0.1311576E+02)
 number of electron      90.0000002 magnetization      -1.4939723
 augmentation part       14.5316202 magnetization      -1.7853349

 Broyden mixing:
  rms(total) = 0.99041E+02    rms(broyden)= 0.99041E+02
  rms(prec ) = 0.10076E+03
  weight for this iteration     100.00

 eigenvalues of (default mixing * dielectric matrix)
  average eigenvalue GAMMA=   0.5244
  0.6702  0.6980  0.6980  0.3736  0.1818

 Free energy of the ion-electron system (eV)
  ---------------------------------------------------
  alpha Z        PSCENC =       218.54217245
  Ewald energy   TEWEN  =     -5467.41617839
  -Hartree energ DENC   =     -3098.50290080
  -exchange      EXHF   =         0.00000000
  -V(xc)+E(xc)   XCENC  =       305.20171644
  PAW double counting   =   4322371.19003387 -4322921.94131100
  entropy T*S    EENTRO =         0.00000000
  eigenvalues    EBANDS =     -2734.96785540
  atomic energy  EATOM  =     10730.29830442
  Solvation  Ediel_sol  =         0.00000000
  ---------------------------------------------------
  free energy    TOTEN  =      -597.59601842 eV

  energy without entropy =     -597.59601842  energy(sigma->0) =     -597.59601842


--------------------------------------------------------------------------------------------------------




--------------------------------------- Iteration      1(  11)  ---------------------------------------


    POTLOK:  cpu time      0.0093: real time      0.0100
    SETDIJ:  cpu time      1.2584: real time      1.2588
     EDDAV:  cpu time      1.0919: real time      1.0926
 BZINTS: Fermi energy:  -10.027369;   90.000000 electrons
         Band energy:-0.243226E+04;  BLOECHL correction:   -0.073544
       DOS:  cpu time      0.0044: real time      0.0044
    CHARGE:  cpu time      0.1552: real time      0.1553
    MIXING:  cpu time      0.0033: real time      0.0033
    --------------------------------------------
      LOOP:  cpu time      2.5225: real time      2.5244

 eigenvalue-minimisations  :  2224
 total energy-change (2. order) : 0.3264370E+03  (-0.5607627E+02)
 number of electron      90.0000000 magnetization      -6.4164539
 augmentation part       20.3845268 magnetization      -6.1102196

 Broyden mixing:
  rms(total) = 0.90570E+02    rms(broyden)= 0.90570E+02
  rms(prec ) = 0.91242E+02
  weight for this iteration     100.00

 eigenvalues of (default mixing * dielectric matrix)
  average eigenvalue GAMMA=   0.6002
  0.7453  0.7453  0.7228  0.7228  0.3804  0.2843

 Free energy of the ion-electron system (eV)
  ---------------------------------------------------
  alpha Z        PSCENC =       218.54217245
  Ewald energy   TEWEN  =     -5467.41617839
  -Hartree energ DENC   =     -3159.73946806
  -exchange      EXHF   =         0.00000000
  -V(xc)+E(xc)   XCENC  =       315.07257887
  PAW double counting   =   2780653.83748124 -2781129.49063927
  entropy T*S    EENTRO =         0.00000000
  eigenvalues    EBANDS =     -2432.26322332
  atomic energy  EATOM  =     10730.29830442
  Solvation  Ediel_sol  =         0.00000000
  ---------------------------------------------------
  free energy    TOTEN  =      -271.15897207 eV

  energy without entropy =     -271.15897207  energy(sigma->0) =     -271.15897207


--------------------------------------------------------------------------------------------------------




--------------------------------------- Iteration      1(  12)  ---------------------------------------


    POTLOK:  cpu time      0.0093: real time      0.0102
    SETDIJ:  cpu time      1.2543: real time      1.2548
     EDDAV:  cpu time      1.2605: real time      1.2613
 BZINTS: Fermi energy:   -3.789844;   90.000000 electrons
         Band energy:-0.218930E+04;  BLOECHL correction:   -0.012400
       DOS:  cpu time      0.0046: real time      0.0046
    CHARGE:  cpu time      0.1575: real time      0.1575
    MIXING:  cpu time      0.0035: real time      0.0035
    --------------------------------------------
      LOOP:  cpu time      2.6897: real time      2.6920

 eigenvalue-minimisations  :  2704
 total energy-change (2. order) :-0.1101902E+03  (-0.1122436E+03)
 number of electron      90.0000001 magnetization      -6.6017075
 augmentation part       19.0865572 magnetization      -6.8255972

 Broyden mixing:
  rms(total) = 0.75489E+02    rms(broyden)= 0.75489E+02
  rms(prec ) = 0.78595E+02
  weight for this iteration     100.00

 eigenvalues of (default mixing * dielectric matrix)
  average eigenvalue GAMMA=   0.9133
  1.7435  1.7435  0.8117  0.8117  0.4940  0.4940  0.2950

 Free energy of the ion-electron system (eV)
  ---------------------------------------------------
  alpha Z        PSCENC =       218.54217245
  Ewald energy   TEWEN  =     -5467.41617839
  -Hartree energ DENC   =     -3610.78302340
  -exchange      EXHF   =         0.00000000
  -V(xc)+E(xc)   XCENC  =       364.56401573
  PAW double counting   =   1257193.06066288 -1257620.31077668
  entropy T*S    EENTRO =         0.00000000
  eigenvalues    EBANDS =     -2189.30437602
  atomic energy  EATOM  =     10730.29830442
  Solvation  Ediel_sol  =         0.00000000
  ---------------------------------------------------
  free energy    TOTEN  =      -381.34919901 eV

  energy without entropy =     -381.34919901  energy(sigma->0) =     -381.34919901


--------------------------------------------------------------------------------------------------------




--------------------------------------- Iteration      1(  13)  ---------------------------------------


    POTLOK:  cpu time      0.0093: real time      0.0105
    SETDIJ:  cpu time      1.2416: real time      1.2420
     EDDAV:  cpu time      1.2187: real time      1.2193
 BZINTS: Fermi energy:   -1.801581;   90.000000 electrons
         Band energy:-0.230971E+04;  BLOECHL correction:   -0.054273
       DOS:  cpu time      0.0040: real time      0.0040
    CHARGE:  cpu time      0.1578: real time      0.1581
    MIXING:  cpu time      0.0039: real time      0.0039
    --------------------------------------------
      LOOP:  cpu time      2.6352: real time      2.6378

 eigenvalue-minimisations  :  2604
 total energy-change (2. order) :-0.2688574E+03  (-0.9469493E+02)
 number of electron      90.0000004 magnetization      -6.3551594
 augmentation part       26.1378331 magnetization      -4.2803977

 Broyden mixing:
  rms(total) = 0.40600E+02    rms(broyden)= 0.40600E+02
  rms(prec ) = 0.47299E+02
  weight for this iteration     100.00

 eigenvalues of (default mixing * dielectric matrix)
  average eigenvalue GAMMA=   0.8783
  1.8055  1.8055  0.8391  0.8391  0.5716  0.5716  0.2971  0.2971

 Free energy of the ion-electron system (eV)
  ---------------------------------------------------
  alpha Z        PSCENC =       218.54217245
  Ewald energy   TEWEN  =     -5467.41617839
  -Hartree energ DENC   =     -3822.72175110
  -exchange      EXHF   =         0.00000000
  -V(xc)+E(xc)   XCENC  =       374.29712777
  PAW double counting   =     20574.17863645   -20947.67229008
  entropy T*S    EENTRO =         0.00000000
  eigenvalues    EBANDS =     -2309.71265219
  atomic energy  EATOM  =     10730.29830442
  Solvation  Ediel_sol  =         0.00000000
  ---------------------------------------------------
  free energy    TOTEN  =      -650.20663067 eV

  energy without entropy =     -650.20663067  energy(sigma->0) =     -650.20663067


--------------------------------------------------------------------------------------------------------




--------------------------------------- Iteration      1(  14)  ---------------------------------------


    POTLOK:  cpu time      0.0093: real time      0.0101
    SETDIJ:  cpu time      1.2436: real time      1.2440
     EDDAV:  cpu time      1.2802: real time      1.2811
 BZINTS: Fermi energy:   -1.082875;   90.000000 electrons
         Band energy:-0.218174E+04;  BLOECHL correction:   -0.047134
       DOS:  cpu time      0.0043: real time      0.0043
    CHARGE:  cpu time      0.1559: real time      0.1560
    MIXING:  cpu time      0.0036: real time      0.0036
    --------------------------------------------
      LOOP:  cpu time      2.6968: real time      2.6992

 eigenvalue-minimisations  :  2740
 total energy-change (2. order) : 0.4146565E+01  (-0.5212006E+01)
 number of electron      90.0000001 magnetization      -5.0552818
 augmentation part       24.1518740 magnetization      -2.6898480

 Broyden mixing:
  rms(total) = 0.36584E+02    rms(broyden)= 0.36584E+02
  rms(prec ) = 0.44174E+02
  weight for this iteration     100.00

 eigenvalues of (default mixing * dielectric matrix)
  average eigenvalue GAMMA=   0.8468
  1.7438  1.7438  0.7288  0.7288  0.7681  0.7681  0.4237  0.4237  0.2928

 Free energy of the ion-electron system (eV)
  ---------------------------------------------------
  alpha Z        PSCENC =       218.54217245
  Ewald energy   TEWEN  =     -5467.41617839
  -Hartree energ DENC   =     -3946.69380577
  -exchange      EXHF   =         0.00000000
  -V(xc)+E(xc)   XCENC  =       378.32595846
  PAW double counting   =      6382.57481772    -6759.95089211
  entropy T*S    EENTRO =         0.00000000
  eigenvalues    EBANDS =     -2181.74044227
  atomic energy  EATOM  =     10730.29830442
  Solvation  Ediel_sol  =         0.00000000
  ---------------------------------------------------
  free energy    TOTEN  =      -646.06006549 eV

  energy without entropy =     -646.06006549  energy(sigma->0) =     -646.06006549


--------------------------------------------------------------------------------------------------------




--------------------------------------- Iteration      1(  15)  ---------------------------------------


    POTLOK:  cpu time      0.0092: real time      0.0103
    SETDIJ:  cpu time      1.2504: real time      1.2510
     EDDAV:  cpu time      1.2294: real time      1.2305
 BZINTS: Fermi energy:   -1.722162;   90.000000 electrons
         Band energy:-0.206459E+04;  BLOECHL correction:   -0.067353
       DOS:  cpu time      0.0044: real time      0.0044
    CHARGE:  cpu time      0.1547: real time      0.1548
    MIXING:  cpu time      0.0057: real time      0.0057
    --------------------------------------------
      LOOP:  cpu time      2.6538: real time      2.6567

 eigenvalue-minimisations  :  2600
 total energy-change (2. order) : 0.1565162E+03  (-0.9807600E+01)
 number of electron      90.0000001 magnetization      -1.1018145
 augmentation part       26.9576116 magnetization       1.1313467

 Broyden mixing:
  rms(total) = 0.33637E+02    rms(broyden)= 0.33637E+02
  rms(prec ) = 0.39967E+02
  weight for this iteration     100.00

 eigenvalues of (default mixing * dielectric matrix)
  average eigenvalue GAMMA=   0.9092
  1.6672  1.6672  1.2711  1.2711  0.7992  0.7992  0.5077  0.5077  0.2930  0.3083

 Free energy of the ion-electron system (eV)
  ---------------------------------------------------
  alpha Z        PSCENC =       218.54217245
  Ewald energy   TEWEN  =     -5467.41617839
  -Hartree energ DENC   =     -3922.99096158
  -exchange      EXHF   =         0.00000000
  -V(xc)+E(xc)   XCENC  =       369.75752928
  PAW double counting   =      6640.83680970    -6993.98196972
  entropy T*S    EENTRO =         0.00000000
  eigenvalues    EBANDS =     -2064.58959855
  atomic energy  EATOM  =     10730.29830442
  Solvation  Ediel_sol  =         0.00000000
  ---------------------------------------------------
  free energy    TOTEN  =      -489.54389238 eV

  energy without entropy =     -489.54389238  energy(sigma->0) =     -489.54389238


--------------------------------------------------------------------------------------------------------




--------------------------------------- Iteration      1(  16)  ---------------------------------------


    POTLOK:  cpu time      0.0094: real time      0.0100
    SETDIJ:  cpu time      1.2695: real time      1.2705
     EDDAV:  cpu time      1.0956: real time      1.0966
 BZINTS: Fermi energy:   -3.318186;   90.000000 electrons
         Band energy:-0.132417E+04;  BLOECHL correction:   -0.032043
       DOS:  cpu time      0.0043: real time      0.0043
    CHARGE:  cpu time      0.1581: real time      0.1583
    MIXING:  cpu time      0.0039: real time      0.0039
    --------------------------------------------
      LOOP:  cpu time      2.5409: real time      2.5435

 eigenvalue-minimisations  :  2260
 total energy-change (2. order) : 0.4310825E+03  (-0.6312911E+02)
 number of electron      90.0000002 magnetization      -0.1912615
 augmentation part       26.3396768 magnetization      -1.9410702

 Broyden mixing:
  rms(total) = 0.20855E+02    rms(broyden)= 0.20855E+02
  rms(prec ) = 0.22789E+02
  weight for this iteration     100.00

 eigenvalues of (default mixing * dielectric matrix)
  average eigenvalue GAMMA=   0.8821
  1.6558  1.6558  1.3470  1.3470  0.8454  0.8454  0.5011  0.5011  0.2932  0.3558
  0.3558

 Free energy of the ion-electron system (eV)
  ---------------------------------------------------
  alpha Z        PSCENC =       218.54217245
  Ewald energy   TEWEN  =     -5467.41617839
  -Hartree energ DENC   =     -4222.02899367
  -exchange      EXHF   =         0.00000000
  -V(xc)+E(xc)   XCENC  =       353.68073523
  PAW double counting   =     22077.39404189   -22424.75860477
  entropy T*S    EENTRO =         0.00000000
  eigenvalues    EBANDS =     -1324.17287655
  atomic energy  EATOM  =     10730.29830442
  Solvation  Ediel_sol  =         0.00000000
  ---------------------------------------------------
  free energy    TOTEN  =       -58.46139939 eV

  energy without entropy =      -58.46139939  energy(sigma->0) =      -58.46139939


--------------------------------------------------------------------------------------------------------




--------------------------------------- Iteration      1(  17)  ---------------------------------------


    POTLOK:  cpu time      0.0093: real time      0.0101
    SETDIJ:  cpu time      1.2844: real time      1.2855
     EDDAV:  cpu time      1.2134: real time      1.2146
 BZINTS: Fermi energy:    5.242208;   90.000000 electrons
         Band energy:-0.119188E+04;  BLOECHL correction:   -0.008743
       DOS:  cpu time      0.0039: real time      0.0039
    CHARGE:  cpu time      0.1565: real time      0.1567
    MIXING:  cpu time      0.0044: real time      0.0044
    --------------------------------------------
      LOOP:  cpu time      2.6719: real time      2.6752

 eigenvalue-minimisations  :  2572
 total energy-change (2. order) :-0.1294832E+02  (-0.1625992E+02)
 number of electron      90.0000001 magnetization      -0.3329522
 augmentation part       13.6903237 magnetization      -0.2968252

 Broyden mixing:
  rms(total) = 0.17508E+02    rms(broyden)= 0.17507E+02
  rms(prec ) = 0.21036E+02
  weight for this iteration     100.00

 eigenvalues of (default mixing * dielectric matrix)
  average eigenvalue GAMMA=   0.8336
  1.7691  1.7691  1.2618  1.2618  0.8252  0.8252  0.4762  0.4762  0.3984  0.3984
  0.2984  0.2430

 Free energy of the ion-electron system (eV)
  ---------------------------------------------------
  alpha Z        PSCENC =       218.54217245
  Ewald energy   TEWEN  =     -5467.41617839
  -Hartree energ DENC   =     -4356.05614861
  -exchange      EXHF   =         0.00000000
  -V(xc)+E(xc)   XCENC  =       357.63061126
  PAW double counting   =     39539.45416812   -39901.97780200
  entropy T*S    EENTRO =         0.00000000
  eigenvalues    EBANDS =     -1191.88484254
  atomic energy  EATOM  =     10730.29830442
  Solvation  Ediel_sol  =         0.00000000
  ---------------------------------------------------
  free energy    TOTEN  =       -71.40971528 eV

  energy without entropy =      -71.40971528  energy(sigma->0) =      -71.40971528


--------------------------------------------------------------------------------------------------------




--------------------------------------- Iteration      1(  18)  ---------------------------------------


    POTLOK:  cpu time      0.0096: real time      0.0104
    SETDIJ:  cpu time      1.2607: real time      1.2615
     EDDAV:  cpu time      1.2075: real time      1.2084
 BZINTS: Fermi energy:    0.807753;   90.000000 electrons
         Band energy:-0.126848E+04;  BLOECHL correction:   -0.000784
       DOS:  cpu time      0.0043: real time      0.0043
    CHARGE:  cpu time      0.1553: real time      0.1554
    MIXING:  cpu time      0.0050: real time      0.0050
    --------------------------------------------
      LOOP:  cpu time      2.6425: real time      2.6450

 eigenvalue-minimisations  :  2568
 total energy-change (2. order) : 0.1519918E+02  (-0.2703220E+01)
 number of electron      90.0000000 magnetization       0.1515618
 augmentation part       19.7017381 magnetization      -0.1775406

 Broyden mixing:
  rms(total) = 0.16100E+02    rms(broyden)= 0.16100E+02
  rms(prec ) = 0.16578E+02
  weight for this iteration     100.00

 eigenvalues of (default mixing * dielectric matrix)
  average eigenvalue GAMMA=   0.7716
  1.7735  1.7735  1.2613  1.2613  0.8245  0.8245  0.4768  0.4768  0.4017  0.4017
  0.2983  0.2448  0.0122

 Free energy of the ion-electron system (eV)
  ---------------------------------------------------
  alpha Z        PSCENC =       218.54217245
  Ewald energy   TEWEN  =     -5467.41617839
  -Hartree energ DENC   =     -4265.96043136
  -exchange      EXHF   =         0.00000000
  -V(xc)+E(xc)   XCENC  =       354.68690119
  PAW double counting   =     32365.57729691   -32723.45769967
  entropy T*S    EENTRO =         0.00000000
  eigenvalues    EBANDS =     -1268.48089677
  atomic energy  EATOM  =     10730.29830442
  Solvation  Ediel_sol  =         0.00000000
  ---------------------------------------------------
  free energy    TOTEN  =       -56.21053121 eV

  energy without entropy =      -56.21053121  energy(sigma->0) =      -56.21053121


[...]
  288          m_sumb_d                              0.000016                          2   4
  289        strnlr                                0.527123                            1   3
  290          rspher_all                            0.072367                          9   4
  291          phaser                                0.147225                         72   4
  292          rpro_isp                              0.305128                         72   4
  293            fftwav_mpi                            0.067470                     2160   5
  294              fftwav                                0.064950                   2160   6
  295                fft3d                                 0.014516                 2160   7
  296            rpromu_acc                            0.106347                      576   5
  297          m_sumb_d                              0.000008                          1   4
  298        fft3d_mpi                             0.004157                           22   3
  299          fftbrc_mpi                            0.003421                         22   4
  300            fftbas_plan_mpi                       0.003414                       22   5
  301              map_forward                           0.001105                     20   6
  302                map_gather                            0.000228                   10   7
  303                m_alltoallv_z                         0.000129                   10   7
  304                map_scatter                           0.000588                   10   7
  305              map_backward                          0.001696                     24   6
  306                map_gather                            0.000286                   12   7
  307                m_alltoallv_z                         0.000127                   12   7
  308                map_scatter                           0.001097                   12   7
  309        m_sumb_d                              0.000033                            5   3
  310        forhar                                0.002439                            2   3
  311          m_sumb_d                              0.000013                          2   4
  312        strehar                               0.001690                            1   3
  313          m_sumb_d                              0.000057                          1   4
  314        chggra                                0.000831                            1   3
  315          fft3d_mpi                             0.000502                          3   4
  316            fftbrc_mpi                            0.000400                        3   5
  317              fftbas_plan_mpi                       0.000398                      3   6
  318                map_forward                           0.000222                    4   7
  319                  map_gather                            0.000044                  2   8
  320                  m_alltoallv_z                         0.000025                  2   8
  321                  map_scatter                           0.000122                  2   8
  322                map_backward                          0.000091                    2   7
  323                  map_gather                            0.000024                  1   8
  324                  m_alltoallv_z                         0.000011                  1   8
  325                  map_scatter                           0.000042                  1   8
  326          m_sumb_d                              0.000010                          2   4
  327          pothar                                0.000086                          1   4
  328            m_sumb_d                              0.000013                        1   5
  329        brmix                                 0.009447                            1   3
  330          m_sumb_d                              0.000048                          6   4
  331          brpre                                 0.000035                          2   4
  332          setg0                                 0.001115                          1   4
  333          broyd                                 0.006995                          1   4
  334            m_sumb_d                              0.000320                       50   5
  335            brget                                 0.001449                      224   5
  336            brsav                                 0.000303                       48   5
  337        m_bcast_d                             0.000017                            2   3
  338      potlok                                0.041368                              2   2
  339        fft3d_mpi                             0.025524                           36   3
  340          fftbrc_mpi                            0.022137                         36   4
  341            fftbas_plan_mpi                       0.022118                       36   5
  342              map_forward                           0.006271                     40   6
  343                map_gather                            0.001879                   24   7
  344                m_alltoallv_z                         0.002404                   24   7
  345                map_scatter                           0.001784                   24   7
  346              map_backward                          0.005125                     32   6
  347                map_gather                            0.001731                   16   7
  348                m_alltoallv_z                         0.001689                   16   7
  349                map_scatter                           0.001509                   16   7
  350              dfftw_execute                         0.009156                     30   6
  351        m_sumb_d                              0.000027                            5   3
  352        pothar                                0.001563                            2   3
  353          m_sumb_d                              0.000027                          2   4
  354        m_bcast_d                             0.002598                            4   3
  355      potlok_metagga                        0.000000                              1   2
  356      set_dd_magatom                        0.000005                              1   2
  357      set_dd_paw                            1.146152                              1   2
  358        m_sumb_d                              0.460605                            7   3
  359      augmentation_charge                   0.109466                              1   2
  360        fft3d_mpi                             0.059268                            2   3
  361          fftbrc_mpi                            0.053308                          2   4
  362            fftbas_plan_mpi                       0.053305                        2   5
  363              dfftw_execute                         0.035913                      6   6
  364              map_backward                          0.017099                      4   6
  365                map_gather                            0.004297                    2   7
  366                m_alltoallv_z                         0.006540                    2   7
  367                map_scatter                           0.006250                    2   7
  368      fftwav_mpi                            0.819502                            720   2
  369        fftwav                                0.818570                          720   3
  370          fft3d                                 0.760304                        720   4
  371      densta                                0.072778                              1   2
 
 Flat profile
 ============
 
             routine name                   CPU           calls
 ---------------------------------------------------------------
 set_dd_paw                             68.004105         101
 m_sumb_d                               65.814576      157291
 eddav                                  23.833576         103
 lapack                                 21.259085       49047
 raccmu_                                19.705884       49047
 init_acc                               10.873077           1
 redis_pw                               10.848641      250918
 total_time                              9.992672           1
 dfftw_execute                           9.362839        2868
 setdij_                                 5.726969         127
 augmentation_charge                     4.956234         101
 m_alltoall_d                            4.674380      661310
 phaser                                  3.506255        1752
 fft3d                                   2.949352      270502
 eccp                                    2.462645       24720
 acc_init_cublas                         2.445858           1
 redis_proj                              2.110730      316984
 m_alltoallv_z                           1.904133        4003
 fftwav                                  1.790705      179732
 orth1                                   1.573996      147173
 map_scatter                             1.559507        4003
 fft3d_mpi                               1.413546       94351
 racc0mu_acc                             1.389153       49047
 w1_copy                                 1.334638      272310
 hamiltmu                                1.317861       49047
 overl                                   1.297539      156836
 soft_charge                             1.276284         100
 set_charge                              1.206524         100
 rpromu_acc                              1.146868       36695
 map_gather                              1.092671        4003
 m_bcast_z                               1.081320       50007
 ggemm                                   0.917060       62231
 setup_precond                           0.895696       24720
 m_bcast_d                               0.797597       98301
 acc_init_cusolver                       0.788377           1
 overl_mu                                0.753753       49047
 pw_charge                               0.605896       19072
 densta                                  0.492389         104
 potlok                                  0.458570         101
 vhamil                                  0.415177       90770
 newband                                 0.413193       50695
 kinhamil                                0.410976       90770
 depsum                                  0.395974         100
 fftext_mpi                              0.384516       90770
 broyd                                   0.380106          99
 apply_precond                           0.362629       66050
 fftwav_mpi                              0.236405      179732
 elmin                                   0.201029           1
 brmix                                   0.198649          99
 fftbas_plan_mpi                         0.195812        3581
 rpro_isp                                0.182782         104
 acc_cufft_makeplan                      0.130794          19
 brget                                   0.118271       18452
 setg0                                   0.111525         101
 rspher_all                              0.107633          14
 lincom                                  0.056936        1664
 proall                                  0.045372           1
 w1_projall                              0.035652       35863
 brsav                                   0.031475        5057
 sphpro_fast                             0.027506           2
 map_forward                             0.021445        3392
 map_backward                            0.020949        3770
 force_and_stress                        0.010159           1
 fft_gq                                  0.009632         100
 pothar                                  0.009442         102
 truncate_high_frequency_w1              0.009210      115490
 orthch                                  0.007793           1
 stufak                                  0.006163           1
 choleski                                0.006100          16
 inisym                                  0.005136           1
 brpre                                   0.003580         198
 forhar                                  0.002426           2
 strnlr                                  0.002395           1
 strelo                                  0.002236           1
 fftbrc_mpi                              0.002125        3581
 strehar                                 0.001633           1
 forloc                                  0.001289           1
 fornlr                                  0.000853           1
 strkin                                  0.000464           1
 set_dd_magatom                          0.000455         101
 vectorpot                               0.000426         100
 fewald                                  0.000344           1
 chggra                                  0.000233           1
 brgrid                                  0.000209           1
 rsp                                     0.000199           1
 posmap                                  0.000090           2
 fordep                                  0.000047           1
 crpa_reader                             0.000027           1
 rcp                                     0.000021           1
 potlok_metagga                          0.000012         100
 acc_cufft_makeplans                     0.000010           3
 rotate_active_occupied_orbital          0.000000           1
 redis_pw_over_bands                     0.000000           1
 ---------------------------------------------------------------
  summed up times     298.1884789466858     
 
 Accumulative profile
 ====================
 
             routine name                   CPU           calls
 ---------------------------------------------------------------
 total_time                            298.188479           1
 elmin                                 265.454893           1
 eddav                                 124.634973         103
 set_dd_paw                            114.121349         101
 m_sumb_d                               65.814576      157291
 hamiltmu                               25.046154       49047
 raccmu_                                21.848790       49047
 lapack                                 21.259085       49047
 fft3d_mpi                              16.214635       94351
 set_charge                             15.742332         100
 setdij_                                14.367056         127
 fftbrc_mpi                             14.159480        3581
 fftbas_plan_mpi                        14.157356        3581
 redis_pw                               13.135434      250918
 init_acc                               10.873077           1
 augmentation_charge                    10.834215         101
 dfftw_execute                           9.362839        2868
 newband                                 5.640730       50695
 force_and_stress                        4.966181           1
 m_alltoall_d                            4.674380      661310
 redis_proj                              4.498316      316984
 fftwav_mpi                              4.334854      179732
 fftwav                                  4.098449      179732
 phaser                                  3.506255        1752
 soft_charge                             3.210808         100
 fft3d                                   2.949352      270502
 eccp                                    2.462645       24720
 acc_init_cublas                         2.445858           1
 map_forward                             2.326065        3392
 map_backward                            2.272640        3770
 m_alltoallv_z                           1.904133        4003
 orth1                                   1.573996      147173
 map_scatter                             1.559507        4003
 kinhamil                                1.464326       90770
 racc0mu_acc                             1.389153       49047
 w1_copy                                 1.334638      272310
 overl                                   1.297539      156836
 rpromu_acc                              1.146868       36695
 potlok                                  1.101518         101
 map_gather                              1.092671        4003
 m_bcast_z                               1.081320       50007
 fftext_mpi                              1.053350       90770
 w1_projall                              1.038621       35863
 ggemm                                   0.917060       62231
 setup_precond                           0.895696       24720
 brmix                                   0.880162          99
 m_bcast_d                               0.797597       98301
 acc_init_cusolver                       0.788377           1
 overl_mu                                0.753753       49047
 fordep                                  0.677025           1
 pw_charge                               0.605896       19072
 broyd                                   0.556644          99
 strnlr                                  0.527123           1
 densta                                  0.492389         104
 rpro_isp                                0.420878         104
 vhamil                                  0.415177       90770
 depsum                                  0.411571         100
 apply_precond                           0.362629       66050
 fft_gq                                  0.240978         100
 orthch                                  0.215336           1
 fornlr                                  0.176086           1
 acc_cufft_makeplans                     0.130804           3
 acc_cufft_makeplan                      0.130794          19
 brget                                   0.118271       18452
 setg0                                   0.111525         101
 rspher_all                              0.107633          14
 proall                                  0.075647           1
 lincom                                  0.056936        1664
 brsav                                   0.031475        5057
 sphpro_fast                             0.028508           2
 pothar                                  0.010322         102
 truncate_high_frequency_w1              0.009210      115490
 stufak                                  0.006163           1
 choleski                                0.006100          16
 inisym                                  0.005226           1
 brpre                                   0.003580         198
 forhar                                  0.002439           2
 strelo                                  0.002252           1
 strehar                                 0.001690           1
 fewald                                  0.001519           1
 forloc                                  0.001302           1
 chggra                                  0.000831           1
 strkin                                  0.000476           1
 set_dd_magatom                          0.000455         101
 vectorpot                               0.000426         100
 brgrid                                  0.000209           1
 rsp                                     0.000199           1
 posmap                                  0.000090           2
 crpa_reader                             0.000027           1
 rcp                                     0.000021           1
 potlok_metagga                          0.000012         100
 rotate_active_occupied_orbital          0.000000           1
 redis_pw_over_bands                     0.000000           1
 ---------------------------------------------------------------
 
Profiling took   0.578274  0.284977  0.003431  0.003337 seconds
Profiling took   0.363076 seconds
