 vasp.6.3.2 27Jun22 (build Jul  3 2023 11:46:21) complex                         
 executed on    LinuxNV_CrayMPICH date 2024.04.18  01:53:37
 running on    4 total cores
 distrk:  each k-point on    4 cores,    1 groups
 distr:  one band on NCORE=   1 cores,    4 groups


--------------------------------------------------------------------------------------------------------


 INCAR:
   ADDGRID = True
   ALGO = Normal
   AMIX_MAG = 0.8
   BMIX = 0.001
   BMIX_MAG = 0.001
   EDIFF = 0.0006
   ENCUT = 520.0
   IBRION = -1
   ICHARG = 0
   ISIF = 3
   ISMEAR = -5
   ISPIN = 2
   ISTART = 1
   ISYM = 0
   LAECHG = True
   LASPH = True
   LCHARG = True
   LORBIT = 11
   LREAL = Auto
   LVHAR = True
   LWAVE = False
   MAGMOM = 2*7.0 2*0.001 1*-0.002 1*-0.003 1*-0.002 1*-0.003 4*0.0
   NELM = 1000
   NELMDL = -6
   NSW = 0
   PREC = Accurate
   SIGMA = 0.05

 POTCAR:    PAW_PBE Eu 23Dec2003                  
 POTCAR:    PAW_PBE Ta_pv 07Sep2000               
 POTCAR:    PAW_PBE O 08Apr2002                   
 POTCAR:    PAW_PBE Eu 23Dec2003                  
   SHA256 =  ed303d27e7c5191953f9b15539336e6f36d9037c1d2e92e80c13d733697cb93d Eu/POTCAR             
   COPYR  = (c) Copyright 23Dec2003 Georg Kresse                                                    
   COPYR  = This file is part of the software VASP. Any use, copying, and all other rights are regul
   COPYR  = If you do not have a valid VASP license, you may not use, copy or distribute this file. 
   VRHFIN =Eu : [core=Kr4d]                                                                         
   LEXCH  = PE                                                                                      
   EATOM  =  2619.8085 eV,  192.5505 Ry                                                             
                                                                                                    
   TITEL  = PAW_PBE Eu 23Dec2003                                                                    
   LULTRA =        F    use ultrasoft PP ?                                                          
   IUNSCR =        1    unscreen: 0-lin 1-nonlin 2-no                                               
   RPACOR =    2.300    partial core radius                                                         
   POMASS =  151.965; ZVAL   =   17.000    mass and valenz                                          
   RCORE  =    2.800    outmost cutoff radius                                                       
   RWIGS  =    2.800; RWIGS  =    1.482    wigner-seitz radius (au A)                               
   ENMAX  =  249.668; ENMIN  =  187.251 eV                                                          
   RCLOC  =    2.308    cutoff for local pot                                                        
   LCOR   =        T    correct aug charges                                                         
   LPAW   =        T    paw PP                                                                      
   EAUG   =  549.628                                                                                
   DEXC   =    0.000                                                                                
   RMAX   =    2.870    core radius for proj-oper                                                   
   RAUG   =    1.300    factor for augmentation sphere                                              
   RDEP   =    2.887    radius for radial grids                                                     
   RDEPT  =    2.221    core radius for aug-charge                                                  
                                                                                                    
   Atomic configuration                                                                             
   14 entries                                                                                       
     n  l   j            E        occ.                                                              
     1  0  0.50    -48354.7667   2.0000                                                             
     2  0  0.50     -7939.6472   2.0000                                                             
     2  1  1.50     -7072.6637   6.0000                                                             
     3  0  0.50     -1747.1875   2.0000                                                             
     3  1  1.50     -1477.5221   6.0000                                                             
     3  2  2.50     -1117.4686  10.0000                                                             
     4  0  0.50      -346.8682   2.0000                                                             
     4  1  1.50      -258.1962   6.0000                                                             
     4  2  2.50      -134.7724  10.0000                                                             
     5  0  0.50       -44.6510   2.0000                                                             
     6  0  0.50        -3.6227   2.0000                                                             
     5  1  1.50       -23.7639   6.0000                                                             
     5  2  2.50        -1.3130   0.0000                                                             
     4  3  2.50        -2.7310   7.0000                                                             
   Description                                                                                      
     l       E           TYP  RCUT    TYP  RCUT                                                     
     0    -44.6510453     23  2.400                                                                 
     0     -3.6226685     23  2.400                                                                 
     1    -23.7638687     23  2.400                                                                 
     1     27.2116520     23  2.400                                                                 
     2     -1.3129622     23  2.500                                                                 
     2     13.6058260     23  2.500                                                                 
     3     -2.7309948     23  2.800                                                                 
     3     -3.4014565     23  2.800                                                                 
  local pseudopotential read in
  partial core-charges read in
  partial kinetic energy density read in
  atomic valenz-charges read in
  non local Contribution for L=            0  read in
    real space projection operators read in
  non local Contribution for L=            0  read in
    real space projection operators read in
  non local Contribution for L=            1  read in
    real space projection operators read in
  non local Contribution for L=            1  read in
    real space projection operators read in
  non local Contribution for L=            2  read in
    real space projection operators read in
  non local Contribution for L=            2  read in
    real space projection operators read in
  non local Contribution for L=            3  read in
    real space projection operators read in
  non local Contribution for L=            3  read in
    real space projection operators read in
    PAW grid and wavefunctions read in
 
   number of l-projection  operators is LMAX  =            8
   number of lm-projection operators is LMMAX =           32
 
 POTCAR:    PAW_PBE Ta_pv 07Sep2000               
   SHA256 =  00d0a14a36c127416459414afb8617d9754996fffa60a2465888e660b20a452f Ta_pv/POTCAR          
   COPYR  = (c) Copyright 07Sep2000 Georg Kresse                                                    
   COPYR  = This file is part of the software VASP. Any use, copying, and all other rights are regul
   COPYR  = If you do not have a valid VASP license, you may not use, copy or distribute this file. 
   VRHFIN =Ta:  5p6s5d                                                                              
   LEXCH  = PE                                                                                      
   EATOM  =  1047.1984 eV,   76.9669 Ry                                                             
                                                                                                    
   TITEL  = PAW_PBE Ta_pv 07Sep2000                                                                 
   LULTRA =        F    use ultrasoft PP ?                                                          
   IUNSCR =        1    unscreen: 0-lin 1-nonlin 2-no                                               
   RPACOR =    2.330    partial core radius                                                         
   POMASS =  180.948; ZVAL   =   11.000    mass and valenz                                          
   RCORE  =    2.500    outmost cutoff radius                                                       
   RWIGS  =    2.840; RWIGS  =    1.503    wigner-seitz radius (au A)                               
   ENMAX  =  223.667; ENMIN  =  167.750 eV                                                          
   RCLOC  =    2.205    cutoff for local pot                                                        
   LCOR   =        T    correct aug charges                                                         
   LPAW   =        T    paw PP                                                                      
   EAUG   =  377.421                                                                                
   DEXC   =    0.000                                                                                
   RMAX   =    2.551    core radius for proj-oper                                                   
   RAUG   =    1.300    factor for augmentation sphere                                              
   RDEP   =    2.526    radius for radial grids                                                     
   RDEPT  =    2.132    core radius for aug-charge                                                  
                                                                                                    
   Atomic configuration                                                                             
   15 entries                                                                                       
     n  l   j            E        occ.                                                              
     1  0  0.50    -67341.2801   2.0000                                                             
     2  0  0.50    -11566.9369   2.0000                                                             
     2  1  1.50    -10134.1175   6.0000                                                             
     3  0  0.50     -2648.5614   2.0000                                                             
     3  1  1.50     -2222.6006   6.0000                                                             
     3  2  2.50     -1726.3114  10.0000                                                             
     4  0  0.50      -538.6957   2.0000                                                             
     4  1  1.50      -399.0125   6.0000                                                             
     4  2  2.50      -220.3955  10.0000                                                             
     4  3  3.50       -23.0371  14.0000                                                             
     5  0  0.50       -71.2900   2.0000                                                             
     5  1  1.50       -37.8224   6.0000                                                             
     5  2  2.50        -2.6455   4.0000                                                             
     6  0  0.50        -4.9623   1.0000                                                             
     5  3  2.50        -1.3606   0.0000                                                             
   Description                                                                                      
     l       E           TYP  RCUT    TYP  RCUT                                                     
     1    -37.8224449     23  2.500                                                                 
     1      1.3605826     23  2.500                                                                 
     2     -2.6454718     23  2.500                                                                 
     2     -0.6258570     23  2.500                                                                 
     0     -4.9622674     23  2.500                                                                 
     0      4.7531427     23  2.500                                                                 
  local pseudopotential read in
  partial core-charges read in
  partial kinetic energy density read in
  atomic valenz-charges read in
  non local Contribution for L=            1  read in
    real space projection operators read in
  non local Contribution for L=            1  read in
    real space projection operators read in
  non local Contribution for L=            2  read in
    real space projection operators read in
  non local Contribution for L=            2  read in
    real space projection operators read in
  non local Contribution for L=            0  read in
    real space projection operators read in
  non local Contribution for L=            0  read in
    real space projection operators read in
    PAW grid and wavefunctions read in
 
   number of l-projection  operators is LMAX  =            6
   number of lm-projection operators is LMMAX =           18
 
 POTCAR:    PAW_PBE O 08Apr2002                   
   SHA256 =  818f92134a0a090dccd8ba1447fa70422a3b330e708bb4f08108d8ae51209ddf O/POTCAR              
   COPYR  = (c) Copyright 08Apr2002 Georg Kresse                                                    
   COPYR  = This file is part of the software VASP. Any use, copying, and all other rights are regul
   COPYR  = If you do not have a valid VASP license, you may not use, copy or distribute this file. 
   VRHFIN =O: s2p4                                                                                  
   LEXCH  = PE                                                                                      
   EATOM  =   432.3788 eV,   31.7789 Ry                                                             
                                                                                                    
   TITEL  = PAW_PBE O 08Apr2002                                                                     
   LULTRA =        F    use ultrasoft PP ?                                                          
   IUNSCR =        1    unscreen: 0-lin 1-nonlin 2-no                                               
   RPACOR =    1.200    partial core radius                                                         
   POMASS =   16.000; ZVAL   =    6.000    mass and valenz                                          
   RCORE  =    1.520    outmost cutoff radius                                                       
   RWIGS  =    1.550; RWIGS  =    0.820    wigner-seitz radius (au A)                               
   ENMAX  =  400.000; ENMIN  =  300.000 eV                                                          
   ICORE  =        2    local potential                                                             
   LCOR   =        T    correct aug charges                                                         
   LPAW   =        T    paw PP                                                                      
   EAUG   =  605.392                                                                                
   DEXC   =    0.000                                                                                
   RMAX   =    1.553    core radius for proj-oper                                                   
   RAUG   =    1.300    factor for augmentation sphere                                              
   RDEP   =    1.550    radius for radial grids                                                     
   RDEPT  =    1.329    core radius for aug-charge                                                  
                                                                                                    
   Atomic configuration                                                                             
    4 entries                                                                                       
     n  l   j            E        occ.                                                              
     1  0  0.50      -514.6923   2.0000                                                             
     2  0  0.50       -23.9615   2.0000                                                             
     2  1  0.50        -9.0305   4.0000                                                             
     3  2  1.50        -9.5241   0.0000                                                             
   Description                                                                                      
     l       E           TYP  RCUT    TYP  RCUT                                                     
     0    -23.9615318     23  1.200                                                                 
     0     -9.5240782     23  1.200                                                                 
     1     -9.0304911     23  1.520                                                                 
     1      8.1634956     23  1.520                                                                 
     2     -9.5240782      7  1.500                                                                 
  local pseudopotential read in
  partial core-charges read in
  partial kinetic energy density read in
  kinetic energy density of atom read in
  atomic valenz-charges read in
  non local Contribution for L=            0  read in
    real space projection operators read in
  non local Contribution for L=            0  read in
    real space projection operators read in
  non local Contribution for L=            1  read in
    real space projection operators read in
  non local Contribution for L=            1  read in
    real space projection operators read in
    PAW grid and wavefunctions read in
 
   number of l-projection  operators is LMAX  =            4
   number of lm-projection operators is LMMAX =            8
 
 Optimization of the real space projectors (new method)

 maximal supplied QI-value         = 13.42
 optimisation between [QCUT,QGAM] = [ 11.67, 23.35] = [ 38.16,152.62] Ry 
 Optimized for a Real-space Cutoff    1.63 Angstroem

   l    n(q)    QCUT    max X(q) W(low)/X(q) W(high)/X(q)  e(spline) 
   0     11    11.673    10.400    0.14E-04    0.18E-05    0.24E-07
   0     11    11.673    10.768    0.21E-04    0.32E-05    0.49E-07
   1     11    11.673     4.094    0.40E-05    0.13E-04    0.93E-07
   1     11    11.673     4.009    0.11E-04    0.46E-04    0.33E-06
   2     10    11.673    29.030    0.79E-04    0.60E-04    0.70E-06
   2     10    11.673    19.941    0.80E-04    0.60E-04    0.71E-06
   3     10    11.673    88.889    0.23E-03    0.29E-03    0.30E-06
   3     10    11.673    76.102    0.23E-03    0.30E-03    0.30E-06
 Optimization of the real space projectors (new method)

 maximal supplied QI-value         = 15.12
 optimisation between [QCUT,QGAM] = [ 11.64, 23.28] = [ 37.95,151.78] Ry 
 Optimized for a Real-space Cutoff    1.58 Angstroem

   l    n(q)    QCUT    max X(q) W(low)/X(q) W(high)/X(q)  e(spline) 
   1     11    11.641     4.092    0.14E-04    0.12E-05    0.47E-07
   1     11    11.641     4.834    0.39E-04    0.18E-04    0.22E-06
   2     10    11.641    62.294    0.58E-04    0.39E-03    0.13E-05
   2     10    11.641    50.966    0.58E-04    0.39E-03    0.13E-05
   0     11    11.641   103.792    0.30E-04    0.35E-04    0.21E-06
   0     11    11.641    56.335    0.22E-04    0.32E-04    0.20E-06
 Optimization of the real space projectors (new method)

 maximal supplied QI-value         = 24.76
 optimisation between [QCUT,QGAM] = [ 11.64, 23.27] = [ 37.91,151.63] Ry 
 Optimized for a Real-space Cutoff    1.14 Angstroem

   l    n(q)    QCUT    max X(q) W(low)/X(q) W(high)/X(q)  e(spline) 
   0      8    11.635    20.381    0.10E-03    0.33E-03    0.24E-06
   0      8    11.635    15.268    0.11E-03    0.35E-03    0.26E-06
   1      7    11.635     5.964    0.24E-03    0.31E-03    0.30E-06
   1      7    11.635     5.382    0.22E-03    0.25E-03    0.26E-06
  PAW_PBE Eu 23Dec2003                  :
 energy of atom  1       EATOM=-2619.8085
 kinetic energy error for atom=    0.0015 (will be added to EATOM!!)
  PAW_PBE Ta_pv 07Sep2000               :
 energy of atom  2       EATOM=-1047.1984
 kinetic energy error for atom=    0.0016 (will be added to EATOM!!)
  PAW_PBE O 08Apr2002                   :
 energy of atom  3       EATOM= -432.3788
 kinetic energy error for atom=    0.0208 (will be added to EATOM!!)
 
 
 POSCAR: Eu2 Ta2 O8
  positions in direct lattice
  No initial velocities read in
 exchange correlation table for  LEXCH =        8
   RHO(1)=    0.500       N(1)  =     2000
   RHO(2)=  100.500       N(2)  =     4000

 VTST: version 4.2, (08/11/21)

 CHAIN: initializing optimizer
 
 OPT: Using VASP Dynamics algorithm
 CHAIN: Read ICHAIN             0
 
 POSCAR: Eu2 Ta2 O8
  positions in direct lattice
  No initial velocities read in
 


--------------------------------------------------------------------------------------------------------


 ion  position               nearest neighbor table
   1  0.778  0.000  0.750-  11 2.35  12 2.35   5 2.40   6 2.40   9 2.43  10 2.43   7 2.75   8 2.75

   2  0.222  0.000  0.250-   9 2.35  10 2.35   7 2.40   8 2.40  11 2.43  12 2.43   5 2.75   6 2.75

   3  0.679  0.500  0.250-  11 1.90  12 1.90   5 2.01   6 2.01   7 2.17   8 2.17   4 3.39   4 3.39

   4  0.321  0.500  0.750-   9 1.90  10 1.90   7 2.01   8 2.01   5 2.17   6 2.17   3 3.39   3 3.39

   5  0.570  0.280  0.993-   3 2.01   4 2.17   1 2.40   2 2.75
   6  0.570  0.720  0.507-   3 2.01   4 2.17   1 2.40   2 2.75
   7  0.430  0.720  0.007-   4 2.01   3 2.17   2 2.40   1 2.75
   8  0.430  0.280  0.493-   4 2.01   3 2.17   2 2.40   1 2.75
   9  0.100  0.747  0.613-   4 1.90   2 2.35   1 2.43
  10  0.100  0.253  0.887-   4 1.90   2 2.35   1 2.43
  11  0.900  0.253  0.387-   3 1.90   1 2.35   2 2.43
  12  0.900  0.747  0.113-   3 1.90   1 2.35   2 2.43
 

IMPORTANT INFORMATION: All symmetrisations will be switched off!
NOSYMM: (Re-)initialisation of all symmetry stuff for point group C_1.


----------------------------------------------------------------------------------------

                                     Primitive cell                                     

  volume of cell :     161.2803

  direct lattice vectors                    reciprocal lattice vectors
     5.687741000  0.000000000  0.000000000     0.175816726  0.000000000  0.000000000
     0.000000000  5.258577000  0.000000000     0.000000000  0.190165514 -0.022491466
     0.000000000  0.637763000  5.392291000     0.000000000  0.000000000  0.185449932

  length of vectors
     5.687741000  5.258577000  5.429875125     0.175816726  0.191490963  0.185449932

  position of ions in fractional coordinates (direct lattice)
     0.778051000  0.000000000  0.750000000
     0.221949000  0.000000000  0.250000000
     0.679170000  0.500000000  0.250000000
     0.320830000  0.500000000  0.750000000
     0.569710000  0.280363000  0.993189000
     0.569710000  0.719637000  0.506811000
     0.430290000  0.719637000  0.006811000
     0.430290000  0.280363000  0.493189000
     0.099556000  0.746785000  0.612745000
     0.099556000  0.253215000  0.887255000
     0.900444000  0.253215000  0.387255000
     0.900444000  0.746785000  0.112745000

  ion indices of the primitive-cell ions
   primitive index   ion index
                 1           1
                 2           2
                 3           3
                 4           4
                 5           5
                 6           6
                 7           7
                 8           8
                 9           9
                10          10
                11          11
                12          12

----------------------------------------------------------------------------------------

 
 
 KPOINTS: Kpoints from vasprun.xml                

Automatic generation of k-mesh.
 Grid dimensions read from file:
 generate k-points for:    5    5    5

 Generating k-lattice:

  Cartesian coordinates                     Fractional coordinates (reciprocal lattice)
     0.035163345  0.000000000  0.000000000     0.200000000  0.000000000  0.000000000
     0.000000000  0.038033103 -0.004498293     0.000000000  0.200000000  0.000000000
     0.000000000  0.000000000  0.037089986     0.000000000  0.000000000  0.200000000

  Length of vectors
     0.035163345  0.038298193  0.037089986

  Shift w.r.t. Gamma in fractional coordinates (k-lattice)
     0.000000000  0.000000000  0.000000000

 TETIRR: Found    372 inequivalent tetrahedra from      750
 
 Subroutine IBZKPT returns following result:
 ===========================================
 
 Found     63 irreducible k-points:
 
 Following reciprocal coordinates:
            Coordinates               Weight
  0.000000  0.000000  0.000000      1.000000
  0.200000  0.000000  0.000000      2.000000
  0.400000  0.000000  0.000000      2.000000
  0.000000  0.200000  0.000000      2.000000
  0.200000  0.200000  0.000000      2.000000
  0.200000 -0.200000  0.000000      2.000000
  0.400000  0.200000  0.000000      2.000000
  0.400000 -0.200000  0.000000      2.000000
  0.000000  0.400000  0.000000      2.000000
  0.200000  0.400000  0.000000      2.000000
  0.200000 -0.400000  0.000000      2.000000
  0.400000  0.400000  0.000000      2.000000
  0.400000 -0.400000  0.000000      2.000000
  0.000000  0.000000  0.200000      2.000000
  0.200000  0.000000  0.200000      2.000000
  0.200000  0.000000 -0.200000      2.000000
  0.400000  0.000000  0.200000      2.000000
  0.400000  0.000000 -0.200000      2.000000
  0.000000  0.200000  0.200000      2.000000
  0.200000  0.200000  0.200000      2.000000
  0.200000 -0.200000 -0.200000      2.000000
  0.400000  0.200000  0.200000      2.000000
  0.400000 -0.200000 -0.200000      2.000000
  0.000000  0.400000  0.200000      2.000000
  0.200000  0.400000  0.200000      2.000000
  0.200000 -0.400000 -0.200000      2.000000
  0.400000  0.400000  0.200000      2.000000
  0.400000 -0.400000 -0.200000      2.000000
  0.000000 -0.400000  0.200000      2.000000
  0.200000 -0.400000  0.200000      2.000000
  0.200000  0.400000 -0.200000      2.000000
  0.400000 -0.400000  0.200000      2.000000
  0.400000  0.400000 -0.200000      2.000000
  0.000000 -0.200000  0.200000      2.000000
  0.200000 -0.200000  0.200000      2.000000
  0.200000  0.200000 -0.200000      2.000000
  0.400000 -0.200000  0.200000      2.000000
  0.400000  0.200000 -0.200000      2.000000
  0.000000  0.000000  0.400000      2.000000
  0.200000  0.000000  0.400000      2.000000
  0.200000  0.000000 -0.400000      2.000000
  0.400000  0.000000  0.400000      2.000000
  0.400000  0.000000 -0.400000      2.000000
  0.000000  0.200000  0.400000      2.000000
  0.200000  0.200000  0.400000      2.000000
  0.200000 -0.200000 -0.400000      2.000000
  0.400000  0.200000  0.400000      2.000000
  0.400000 -0.200000 -0.400000      2.000000
  0.000000  0.400000  0.400000      2.000000
  0.200000  0.400000  0.400000      2.000000
  0.200000 -0.400000 -0.400000      2.000000
  0.400000  0.400000  0.400000      2.000000
  0.400000 -0.400000 -0.400000      2.000000
  0.000000 -0.400000  0.400000      2.000000
  0.200000 -0.400000  0.400000      2.000000
  0.200000  0.400000 -0.400000      2.000000
  0.400000 -0.400000  0.400000      2.000000
  0.400000  0.400000 -0.400000      2.000000
  0.000000 -0.200000  0.400000      2.000000
  0.200000 -0.200000  0.400000      2.000000
  0.200000  0.200000 -0.400000      2.000000
  0.400000 -0.200000  0.400000      2.000000
  0.400000  0.200000 -0.400000      2.000000
 
 Following cartesian coordinates:
            Coordinates               Weight
  0.000000  0.000000  0.000000      1.000000
  0.035163  0.000000  0.000000      2.000000
  0.070327  0.000000  0.000000      2.000000
  0.000000  0.038033 -0.004498      2.000000
  0.035163  0.038033 -0.004498      2.000000
  0.035163 -0.038033  0.004498      2.000000
  0.070327  0.038033 -0.004498      2.000000
  0.070327 -0.038033  0.004498      2.000000
  0.000000  0.076066 -0.008997      2.000000
  0.035163  0.076066 -0.008997      2.000000
  0.035163 -0.076066  0.008997      2.000000
  0.070327  0.076066 -0.008997      2.000000
  0.070327 -0.076066  0.008997      2.000000
  0.000000  0.000000  0.037090      2.000000
  0.035163  0.000000  0.037090      2.000000
  0.035163  0.000000 -0.037090      2.000000
  0.070327  0.000000  0.037090      2.000000
  0.070327  0.000000 -0.037090      2.000000
  0.000000  0.038033  0.032592      2.000000
  0.035163  0.038033  0.032592      2.000000
  0.035163 -0.038033 -0.032592      2.000000
  0.070327  0.038033  0.032592      2.000000
  0.070327 -0.038033 -0.032592      2.000000
  0.000000  0.076066  0.028093      2.000000
  0.035163  0.076066  0.028093      2.000000
  0.035163 -0.076066 -0.028093      2.000000
  0.070327  0.076066  0.028093      2.000000
  0.070327 -0.076066 -0.028093      2.000000
  0.000000 -0.076066  0.046087      2.000000
  0.035163 -0.076066  0.046087      2.000000
  0.035163  0.076066 -0.046087      2.000000
  0.070327 -0.076066  0.046087      2.000000
  0.070327  0.076066 -0.046087      2.000000
  0.000000 -0.038033  0.041588      2.000000
  0.035163 -0.038033  0.041588      2.000000
  0.035163  0.038033 -0.041588      2.000000
  0.070327 -0.038033  0.041588      2.000000
  0.070327  0.038033 -0.041588      2.000000
  0.000000  0.000000  0.074180      2.000000
  0.035163  0.000000  0.074180      2.000000
  0.035163  0.000000 -0.074180      2.000000
  0.070327  0.000000  0.074180      2.000000
  0.070327  0.000000 -0.074180      2.000000
  0.000000  0.038033  0.069682      2.000000
  0.035163  0.038033  0.069682      2.000000
  0.035163 -0.038033 -0.069682      2.000000
  0.070327  0.038033  0.069682      2.000000
  0.070327 -0.038033 -0.069682      2.000000
  0.000000  0.076066  0.065183      2.000000
  0.035163  0.076066  0.065183      2.000000
  0.035163 -0.076066 -0.065183      2.000000
  0.070327  0.076066  0.065183      2.000000
  0.070327 -0.076066 -0.065183      2.000000
  0.000000 -0.076066  0.083177      2.000000
  0.035163 -0.076066  0.083177      2.000000
  0.035163  0.076066 -0.083177      2.000000
  0.070327 -0.076066  0.083177      2.000000
  0.070327  0.076066 -0.083177      2.000000
  0.000000 -0.038033  0.078678      2.000000
  0.035163 -0.038033  0.078678      2.000000
  0.035163  0.038033 -0.078678      2.000000
  0.070327 -0.038033  0.078678      2.000000
  0.070327  0.038033 -0.078678      2.000000
 


--------------------------------------------------------------------------------------------------------




 Dimension of arrays:
   k-points           NKPTS =     63   k-points in BZ     NKDIM =     63   number of bands    NBANDS=     72
   number of dos      NEDOS =    301   number of ions     NIONS =     12
   non local maximal  LDIM  =      8   non local SUM 2l+1 LMDIM =     32
   total plane-waves  NPLWV =  67200
   max r-space proj   IRMAX =   7570   max aug-charges    IRDMAX= 190738
   dimension x,y,z NGX =    42 NGY =   40 NGZ =   40
   dimension x,y,z NGXF=    84 NGYF=   80 NGZF=   80
   support grid    NGXF=   168 NGYF=  160 NGZF=  160
   ions per type =               2   2   8
   NGX,Y,Z   is equivalent  to a cutoff of  12.28, 12.65, 12.25 a.u.
   NGXF,Y,Z  is equivalent  to a cutoff of  24.55, 25.29, 24.49 a.u.

 SYSTEM =  unknown system                          
 POSCAR =  Eu2 Ta2 O8                              

 Startparameter for this run:
   NWRITE =      2    write-flag & timer
   PREC   = accura    normal or accurate (medium, high low for compatibility)
   ISTART =      0    job   : 0-new  1-cont  2-samecut
   ICHARG =      2    charge: 1-file 2-atom 10-const
   ISPIN  =      2    spin polarized calculation?
   LNONCOLLINEAR =      F non collinear calculations
   LSORBIT =      F    spin-orbit coupling
   INIWAV =      1    electr: 0-lowe 1-rand  2-diag
   LASPH  =      T    aspherical Exc in radial PAW
 Electronic Relaxation 1
   ENCUT  =  520.0 eV  38.22 Ry    6.18 a.u.  10.58  9.78 10.10*2*pi/ulx,y,z
   ENINI  =  520.0     initial cutoff
   ENAUG  =  605.4 eV  augmentation charge cutoff
   NELM   =   1000;   NELMIN=  2; NELMDL= -6     # of ELM steps 
   EDIFF  = 0.6E-03   stopping-criterion for ELM
   LREAL  =      T    real-space projection
   NLSPLINE    = F    spline interpolate recip. space projectors
   LCOMPAT=      F    compatible to vasp.4.4
   GGA_COMPAT  = T    GGA compatible to vasp.4.4-vasp.4.6
   LMAXPAW     = -100 max onsite density
   LMAXMIX     =    2 max onsite mixed and CHGCAR
   VOSKOWN=      0    Vosko Wilk Nusair interpolation
   ROPT   =   -0.00025  -0.00025  -0.00025
 Ionic relaxation
   EDIFFG = 0.6E-02   stopping-criterion for IOM
   NSW    =      0    number of steps for IOM
   NBLOCK =      1;   KBLOCK =      1    inner block; outer block 
   IBRION =     -1    ionic relax: 0-MD 1-quasi-New 2-CG
   NFREE  =      0    steps in history (QN), initial steepest desc. (CG)
   ISIF   =      3    stress and relaxation
   IWAVPR =     10    prediction:  0-non 1-charg 2-wave 3-comb
   ISYM   =      0    0-nonsym 1-usesym 2-fastsym
   LCORR  =      T    Harris-Foulkes like correction to forces

   POTIM  = 0.5000    time-step for ionic-motion
   TEIN   =    0.0    initial temperature
   TEBEG  =    0.0;   TEEND  =   0.0 temperature during run
   SMASS  =  -3.00    Nose mass-parameter (am)
   estimated Nose-frequenzy (Omega)   =  0.10E-29 period in steps = 0.13E+47 mass=  -0.739E-27a.u.
   SCALEE = 1.0000    scale energy and forces
   NPACO  =    256;   APACO  = 10.0  distance and # of slots for P.C.
   PSTRESS=    0.0 pullay stress

  Mass of Ions in am
   POMASS = 151.97180.95 16.00
  Ionic Valenz
   ZVAL   =  17.00 11.00  6.00
  Atomic Wigner-Seitz radii
   RWIGS  =  -1.00 -1.00 -1.00
  virtual crystal weights 
   VCA    =   1.00  1.00  1.00
   NELECT =     104.0000    total number of electrons
   NUPDOWN=      -1.0000    fix difference up-down

 DOS related values:
   EMIN   =  10.00;   EMAX   =-10.00  energy-range for DOS
   EFERMI =   0.00
   ISMEAR =    -5;   SIGMA  =   0.05  broadening in eV -4-tet -1-fermi 0-gaus

 Electronic relaxation 2 (details)
   IALGO  =     38    algorithm
   LDIAG  =      T    sub-space diagonalisation (order eigenvalues)
   LSUBROT=      F    optimize rotation matrix (better conditioning)
   TURBO    =      0    0=normal 1=particle mesh
   IRESTART =      0    0=no restart 2=restart with 2 vectors
   NREBOOT  =      0    no. of reboots
   NMIN     =      0    reboot dimension
   EREF     =   0.00    reference energy to select bands
   IMIX   =      4    mixing-type and parameters
     AMIX     =   0.40;   BMIX     =  0.00
     AMIX_MAG =   0.80;   BMIX_MAG =  0.00
     AMIN     =   0.10
     WC   =   100.;   INIMIX=   1;  MIXPRE=   1;  MAXMIX= -45

 Intra band minimization:
   WEIMIN = 0.0000     energy-eigenvalue tresh-hold
   EBREAK =  0.21E-05  absolut break condition
   DEPER  =   0.30     relativ break condition  

   TIME   =   0.40     timestep for ELM

  volume/ion in A,a.u.               =      13.44        90.70
  Fermi-wavevector in a.u.,A,eV,Ry     =   1.414356  2.672746 27.217144  2.000404
  Thomas-Fermi vector in A             =   2.535907
 
 Write flags
   LWAVE        =      F    write WAVECAR
   LDOWNSAMPLE  =      F    k-point downsampling of WAVECAR
   LCHARG       =      T    write CHGCAR
   LVTOT        =      F    write LOCPOT, total local potential
   LVHAR        =      T    write LOCPOT, Hartree potential only
   LELF         =      F    write electronic localiz. function (ELF)
   LORBIT       =     11    0 simple, 1 ext, 2 COOP (PROOUT), +10 PAW based schemes


 Dipole corrections
   LMONO  =      F    monopole corrections only (constant potential shift)
   LDIPOL =      F    correct potential (dipole corrections)
   IDIPOL =      0    1-x, 2-y, 3-z, 4-all directions 
   EPSILON=  1.0000000 bulk dielectric constant

 Exchange correlation treatment:
   GGA     =    --    GGA type
   LEXCH   =     8    internal setting for exchange type
   LIBXC   =     F    Libxc                    
   VOSKOWN =     0    Vosko Wilk Nusair interpolation
   LHFCALC =     F    Hartree Fock is set to
   LHFONE  =     F    Hartree Fock one center treatment
   AEXX    =    0.0000 exact exchange contribution

 Linear response parameters
   LEPSILON=     F    determine dielectric tensor
   LRPA    =     F    only Hartree local field effects (RPA)
   LNABLA  =     F    use nabla operator in PAW spheres
   LVEL    =     F    velocity operator in full k-point grid
   CSHIFT  =0.1000    complex shift for real part using Kramers Kronig
   OMEGAMAX=  -1.0    maximum frequency
   DEG_THRESHOLD= 0.2000000E-02 threshold for treating states as degnerate
   RTIME   =   -0.100 relaxation time in fs
  (WPLASMAI=    0.000 imaginary part of plasma frequency in eV, 0.658/RTIME)
   DFIELD  = 0.0000000 0.0000000 0.0000000 field for delta impulse in time
 
  Optional k-point grid parameters
   LKPOINTS_OPT  =     F    use optional k-point grid
   KPOINTS_OPT_MODE=     1    mode for optional k-point grid
 
 Orbital magnetization related:
   ORBITALMAG=     F  switch on orbital magnetization
   LCHIMAG   =     F  perturbation theory with respect to B field
   DQ        =  0.001000  dq finite difference perturbation B field
   LLRAUG    =     F  two centre corrections for induced B field



--------------------------------------------------------------------------------------------------------


 Static calculation
 charge density and potential will be updated during run
 spin polarized calculation
 Variant of blocked Davidson
 Davidson routine will perform the subspace rotation
 perform sub-space diagonalisation
    after iterative eigenvector-optimisation
 modified Broyden-mixing scheme, WC =      100.0
 initial mixing is a Kerker type mixing with AMIX =  0.4000 and BMIX =      0.0010
 Hartree-type preconditioning will be used
 using additional bands            20
 real space projection scheme for non local part
 use partial core corrections
 calculate Harris-corrections to forces 
   (improved forces if not selfconsistent)
 use gradient corrections 
 use of overlap-Matrix (Vanderbilt PP)
 Fermi weights with tetrahedron method with Bloechl corrections


--------------------------------------------------------------------------------------------------------


  energy-cutoff  :      520.00
  volume of cell :      161.28
      direct lattice vectors                 reciprocal lattice vectors
     5.687741000  0.000000000  0.000000000     0.175816726  0.000000000  0.000000000
     0.000000000  5.258577000  0.000000000     0.000000000  0.190165514 -0.022491466
     0.000000000  0.637763000  5.392291000     0.000000000  0.000000000  0.185449932

  length of vectors
     5.687741000  5.258577000  5.429875125     0.175816726  0.191490963  0.185449932


 
 k-points in units of 2pi/SCALE and weight: Kpoints from vasprun.xml                
   0.00000000  0.00000000  0.00000000       0.008
   0.03516335  0.00000000  0.00000000       0.016
   0.07032669  0.00000000  0.00000000       0.016
   0.00000000  0.03803310 -0.00449829       0.016
   0.03516335  0.03803310 -0.00449829       0.016
   0.03516335 -0.03803310  0.00449829       0.016
   0.07032669  0.03803310 -0.00449829       0.016
   0.07032669 -0.03803310  0.00449829       0.016
   0.00000000  0.07606621 -0.00899659       0.016
   0.03516335  0.07606621 -0.00899659       0.016
   0.03516335 -0.07606621  0.00899659       0.016
   0.07032669  0.07606621 -0.00899659       0.016
   0.07032669 -0.07606621  0.00899659       0.016
   0.00000000  0.00000000  0.03708999       0.016
   0.03516335  0.00000000  0.03708999       0.016
   0.03516335  0.00000000 -0.03708999       0.016
   0.07032669  0.00000000  0.03708999       0.016
   0.07032669  0.00000000 -0.03708999       0.016
   0.00000000  0.03803310  0.03259169       0.016
   0.03516335  0.03803310  0.03259169       0.016
   0.03516335 -0.03803310 -0.03259169       0.016
   0.07032669  0.03803310  0.03259169       0.016
   0.07032669 -0.03803310 -0.03259169       0.016
   0.00000000  0.07606621  0.02809340       0.016
   0.03516335  0.07606621  0.02809340       0.016
   0.03516335 -0.07606621 -0.02809340       0.016
   0.07032669  0.07606621  0.02809340       0.016
   0.07032669 -0.07606621 -0.02809340       0.016
   0.00000000 -0.07606621  0.04608657       0.016
   0.03516335 -0.07606621  0.04608657       0.016
   0.03516335  0.07606621 -0.04608657       0.016
   0.07032669 -0.07606621  0.04608657       0.016
   0.07032669  0.07606621 -0.04608657       0.016
   0.00000000 -0.03803310  0.04158828       0.016
   0.03516335 -0.03803310  0.04158828       0.016
   0.03516335  0.03803310 -0.04158828       0.016
   0.07032669 -0.03803310  0.04158828       0.016
   0.07032669  0.03803310 -0.04158828       0.016
   0.00000000  0.00000000  0.07417997       0.016
   0.03516335  0.00000000  0.07417997       0.016
   0.03516335  0.00000000 -0.07417997       0.016
   0.07032669  0.00000000  0.07417997       0.016
   0.07032669  0.00000000 -0.07417997       0.016
   0.00000000  0.03803310  0.06968168       0.016
   0.03516335  0.03803310  0.06968168       0.016
   0.03516335 -0.03803310 -0.06968168       0.016
   0.07032669  0.03803310  0.06968168       0.016
   0.07032669 -0.03803310 -0.06968168       0.016
   0.00000000  0.07606621  0.06518339       0.016
   0.03516335  0.07606621  0.06518339       0.016
   0.03516335 -0.07606621 -0.06518339       0.016
   0.07032669  0.07606621  0.06518339       0.016
   0.07032669 -0.07606621 -0.06518339       0.016
   0.00000000 -0.07606621  0.08317656       0.016
   0.03516335 -0.07606621  0.08317656       0.016
   0.03516335  0.07606621 -0.08317656       0.016
   0.07032669 -0.07606621  0.08317656       0.016
   0.07032669  0.07606621 -0.08317656       0.016
   0.00000000 -0.03803310  0.07867827       0.016
   0.03516335 -0.03803310  0.07867827       0.016
   0.03516335  0.03803310 -0.07867827       0.016
   0.07032669 -0.03803310  0.07867827       0.016
   0.07032669  0.03803310 -0.07867827       0.016
 
 k-points in reciprocal lattice and weights: Kpoints from vasprun.xml                
   0.00000000  0.00000000  0.00000000       0.008
   0.20000000  0.00000000  0.00000000       0.016
   0.40000000  0.00000000  0.00000000       0.016
   0.00000000  0.20000000  0.00000000       0.016
   0.20000000  0.20000000  0.00000000       0.016
   0.20000000 -0.20000000  0.00000000       0.016
   0.40000000  0.20000000  0.00000000       0.016
   0.40000000 -0.20000000  0.00000000       0.016
   0.00000000  0.40000000  0.00000000       0.016
   0.20000000  0.40000000  0.00000000       0.016
   0.20000000 -0.40000000  0.00000000       0.016
   0.40000000  0.40000000  0.00000000       0.016
   0.40000000 -0.40000000  0.00000000       0.016
   0.00000000  0.00000000  0.20000000       0.016
   0.20000000  0.00000000  0.20000000       0.016
   0.20000000  0.00000000 -0.20000000       0.016
   0.40000000  0.00000000  0.20000000       0.016
   0.40000000  0.00000000 -0.20000000       0.016
   0.00000000  0.20000000  0.20000000       0.016
   0.20000000  0.20000000  0.20000000       0.016
   0.20000000 -0.20000000 -0.20000000       0.016
   0.40000000  0.20000000  0.20000000       0.016
   0.40000000 -0.20000000 -0.20000000       0.016
   0.00000000  0.40000000  0.20000000       0.016
   0.20000000  0.40000000  0.20000000       0.016
   0.20000000 -0.40000000 -0.20000000       0.016
   0.40000000  0.40000000  0.20000000       0.016
   0.40000000 -0.40000000 -0.20000000       0.016
   0.00000000 -0.40000000  0.20000000       0.016
   0.20000000 -0.40000000  0.20000000       0.016
   0.20000000  0.40000000 -0.20000000       0.016
   0.40000000 -0.40000000  0.20000000       0.016
   0.40000000  0.40000000 -0.20000000       0.016
   0.00000000 -0.20000000  0.20000000       0.016
   0.20000000 -0.20000000  0.20000000       0.016
   0.20000000  0.20000000 -0.20000000       0.016
   0.40000000 -0.20000000  0.20000000       0.016
   0.40000000  0.20000000 -0.20000000       0.016
   0.00000000  0.00000000  0.40000000       0.016
   0.20000000  0.00000000  0.40000000       0.016
   0.20000000  0.00000000 -0.40000000       0.016
   0.40000000  0.00000000  0.40000000       0.016
   0.40000000  0.00000000 -0.40000000       0.016
   0.00000000  0.20000000  0.40000000       0.016
   0.20000000  0.20000000  0.40000000       0.016
   0.20000000 -0.20000000 -0.40000000       0.016
   0.40000000  0.20000000  0.40000000       0.016
   0.40000000 -0.20000000 -0.40000000       0.016
   0.00000000  0.40000000  0.40000000       0.016
   0.20000000  0.40000000  0.40000000       0.016
   0.20000000 -0.40000000 -0.40000000       0.016
   0.40000000  0.40000000  0.40000000       0.016
   0.40000000 -0.40000000 -0.40000000       0.016
   0.00000000 -0.40000000  0.40000000       0.016
   0.20000000 -0.40000000  0.40000000       0.016
   0.20000000  0.40000000 -0.40000000       0.016
   0.40000000 -0.40000000  0.40000000       0.016
   0.40000000  0.40000000 -0.40000000       0.016
   0.00000000 -0.20000000  0.40000000       0.016
   0.20000000 -0.20000000  0.40000000       0.016
   0.20000000  0.20000000 -0.40000000       0.016
   0.40000000 -0.20000000  0.40000000       0.016
   0.40000000  0.20000000 -0.40000000       0.016
 
 position of ions in fractional coordinates (direct lattice) 
   0.77805100  0.00000000  0.75000000
   0.22194900  0.00000000  0.25000000
   0.67917000  0.50000000  0.25000000
   0.32083000  0.50000000  0.75000000
   0.56971000  0.28036300  0.99318900
   0.56971000  0.71963700  0.50681100
   0.43029000  0.71963700  0.00681100
   0.43029000  0.28036300  0.49318900
   0.09955600  0.74678500  0.61274500
   0.09955600  0.25321500  0.88725500
   0.90044400  0.25321500  0.38725500
   0.90044400  0.74678500  0.11274500
 
 position of ions in cartesian coordinates  (Angst):
   4.42535257  0.47832225  4.04421825
   1.26238843  0.15944075  1.34807275
   3.86294305  2.78872925  1.34807275
   1.82479795  3.10761075  4.04421825
   3.24036293  2.10772962  5.35556411
   3.24036293  4.10749188  2.73287239
   2.44737807  3.78861038  0.03672689
   2.44737807  1.78884812  2.65941861
   0.56624874  4.31781251  3.30409935
   0.56624874  1.89740899  4.78433715
   5.12149226  1.57852749  2.08819165
   5.12149226  3.99893101  0.60795385
 


--------------------------------------------------------------------------------------------------------


 k-point   1 :   0.0000 0.0000 0.0000  plane waves:    4345
 k-point   2 :   0.2000 0.0000 0.0000  plane waves:    4335
 k-point   3 :   0.4000 0.0000 0.0000  plane waves:    4325
 k-point   4 :   0.0000 0.2000 0.0000  plane waves:    4346
 k-point   5 :   0.2000 0.2000 0.0000  plane waves:    4341
 k-point   6 :   0.2000-0.2000 0.0000  plane waves:    4341
 k-point   7 :   0.4000 0.2000 0.0000  plane waves:    4332
 k-point   8 :   0.4000-0.2000 0.0000  plane waves:    4332
 k-point   9 :   0.0000 0.4000 0.0000  plane waves:    4341
 k-point  10 :   0.2000 0.4000 0.0000  plane waves:    4338
 k-point  11 :   0.2000-0.4000 0.0000  plane waves:    4338
 k-point  12 :   0.4000 0.4000 0.0000  plane waves:    4331
 k-point  13 :   0.4000-0.4000 0.0000  plane waves:    4331
 k-point  14 :   0.0000 0.0000 0.2000  plane waves:    4359
 k-point  15 :   0.2000 0.0000 0.2000  plane waves:    4342
 k-point  16 :   0.2000 0.0000-0.2000  plane waves:    4342
 k-point  17 :   0.4000 0.0000 0.2000  plane waves:    4328
 k-point  18 :   0.4000 0.0000-0.2000  plane waves:    4328
 k-point  19 :   0.0000 0.2000 0.2000  plane waves:    4348
 k-point  20 :   0.2000 0.2000 0.2000  plane waves:    4341
 k-point  21 :   0.2000-0.2000-0.2000  plane waves:    4341
 k-point  22 :   0.4000 0.2000 0.2000  plane waves:    4338
 k-point  23 :   0.4000-0.2000-0.2000  plane waves:    4338
 k-point  24 :   0.0000 0.4000 0.2000  plane waves:    4344
 k-point  25 :   0.2000 0.4000 0.2000  plane waves:    4348
 k-point  26 :   0.2000-0.4000-0.2000  plane waves:    4348
 k-point  27 :   0.4000 0.4000 0.2000  plane waves:    4339
 k-point  28 :   0.4000-0.4000-0.2000  plane waves:    4339
 k-point  29 :   0.0000-0.4000 0.2000  plane waves:    4344
 k-point  30 :   0.2000-0.4000 0.2000  plane waves:    4344
 k-point  31 :   0.2000 0.4000-0.2000  plane waves:    4344
 k-point  32 :   0.4000-0.4000 0.2000  plane waves:    4337
 k-point  33 :   0.4000 0.4000-0.2000  plane waves:    4337
 k-point  34 :   0.0000-0.2000 0.2000  plane waves:    4369
 k-point  35 :   0.2000-0.2000 0.2000  plane waves:    4332
 k-point  36 :   0.2000 0.2000-0.2000  plane waves:    4332
 k-point  37 :   0.4000-0.2000 0.2000  plane waves:    4330
 k-point  38 :   0.4000 0.2000-0.2000  plane waves:    4330
 k-point  39 :   0.0000 0.0000 0.4000  plane waves:    4365
 k-point  40 :   0.2000 0.0000 0.4000  plane waves:    4358
 k-point  41 :   0.2000 0.0000-0.4000  plane waves:    4358
 k-point  42 :   0.4000 0.0000 0.4000  plane waves:    4340
 k-point  43 :   0.4000 0.0000-0.4000  plane waves:    4340
 k-point  44 :   0.0000 0.2000 0.4000  plane waves:    4354
 k-point  45 :   0.2000 0.2000 0.4000  plane waves:    4340
 k-point  46 :   0.2000-0.2000-0.4000  plane waves:    4340
 k-point  47 :   0.4000 0.2000 0.4000  plane waves:    4338
 k-point  48 :   0.4000-0.2000-0.4000  plane waves:    4338
 k-point  49 :   0.0000 0.4000 0.4000  plane waves:    4329
 k-point  50 :   0.2000 0.4000 0.4000  plane waves:    4354
 k-point  51 :   0.2000-0.4000-0.4000  plane waves:    4354
 k-point  52 :   0.4000 0.4000 0.4000  plane waves:    4355
 k-point  53 :   0.4000-0.4000-0.4000  plane waves:    4355
 k-point  54 :   0.0000-0.4000 0.4000  plane waves:    4326
 k-point  55 :   0.2000-0.4000 0.4000  plane waves:    4347
 k-point  56 :   0.2000 0.4000-0.4000  plane waves:    4347
 k-point  57 :   0.4000-0.4000 0.4000  plane waves:    4352
 k-point  58 :   0.4000 0.4000-0.4000  plane waves:    4352
 k-point  59 :   0.0000-0.2000 0.4000  plane waves:    4338
 k-point  60 :   0.2000-0.2000 0.4000  plane waves:    4346
 k-point  61 :   0.2000 0.2000-0.4000  plane waves:    4346
 k-point  62 :   0.4000-0.2000 0.4000  plane waves:    4333
 k-point  63 :   0.4000 0.2000-0.4000  plane waves:    4333

 maximum and minimum number of plane-waves per node :      4369     4325

 maximum number of plane-waves:      4369
 maximum index in each direction: 
   IXMAX=   10   IYMAX=   10   IZMAX=   10
   IXMIN=  -10   IYMIN=  -10   IZMIN=  -10


 serial   3D FFT for wavefunctions
 parallel 3D FFT for charge:
    minimum data exchange during FFTs selected (reduces bandwidth)


 total amount of memory used by VASP MPI-rank0   242580. kBytes
=======================================================================

   base      :      30000. kBytes
   nonlr-proj:       9181. kBytes
   fftplans  :      20120. kBytes
   grid      :      17498. kBytes
   one-center:       1179. kBytes
   wavefun   :     164602. kBytes
 
     INWAV:  cpu time      0.0001: real time      0.0003
 Broyden mixing: mesh for mixing (old mesh)
   NGX = 21   NGY = 19   NGZ = 21
  (NGX  = 84   NGY  = 80   NGZ  = 80)
  gives a total of   8379 points

 initial charge density was supplied:
 charge density of overlapping atoms calculated
 number of electron     104.0000000 magnetization      13.9920000
 keeping initial charge density in first step


--------------------------------------------------------------------------------------------------------


 Maximum index for non-local projection operator          7298
 Maximum index for augmentation-charges         46194 (set IRDMAX)


--------------------------------------------------------------------------------------------------------


 First call to EWALD:  gamma=   0.326
 Maximum number of real-space cells 3x 3x 3
 Maximum number of reciprocal cells 3x 3x 3

    FEWALD:  cpu time      0.0008: real time      0.0008


--------------------------------------- Iteration      1(   1)  ---------------------------------------


    POTLOK:  cpu time      0.1352: real time      0.1879
    SETDIJ:  cpu time      1.3829: real time      1.3835
     EDDAV:  cpu time     10.2770: real time     10.2873
 BZINTS: Fermi energy:   20.487200;  104.000000 electrons
         Band energy: 0.338607E+03;  BLOECHL correction:   -0.528173
       DOS:  cpu time      0.2724: real time      0.2725
    --------------------------------------------
      LOOP:  cpu time     12.0675: real time     12.1311

 eigenvalue-minimisations  : 26992
 total energy-change (2. order) : 0.1185067E+04  (-0.4669998E+04)
 number of electron     104.0000000 magnetization      13.9920000
 augmentation part      104.0000000 magnetization      13.9920000

 Free energy of the ion-electron system (eV)
  ---------------------------------------------------
  alpha Z        PSCENC =       774.91026753
  Ewald energy   TEWEN  =     -8328.04883800
  -Hartree energ DENC   =     -2563.37739877
  -exchange      EXHF   =         0.00000000
  -V(xc)+E(xc)   XCENC  =       439.14234780
  PAW double counting   =      8843.73633974    -9112.77349534
  entropy T*S    EENTRO =         0.00000000
  eigenvalues    EBANDS =       338.60679661
  atomic energy  EATOM  =     10792.87137396
  Solvation  Ediel_sol  =         0.00000000
  ---------------------------------------------------
  free energy    TOTEN  =      1185.06739354 eV

  energy without entropy =     1185.06739354  energy(sigma->0) =     1185.06739354


--------------------------------------------------------------------------------------------------------




--------------------------------------- Iteration      1(   2)  ---------------------------------------


     EDDAV:  cpu time      9.0297: real time      9.0352
 BZINTS: Fermi energy:    9.716757;  104.000000 electrons
         Band energy:-0.714413E+03;  BLOECHL correction:   -0.169029
       DOS:  cpu time      0.2393: real time      0.2394
    --------------------------------------------
      LOOP:  cpu time      9.2690: real time      9.2746

 eigenvalue-minimisations  : 23280
 total energy-change (2. order) :-0.1053020E+04  (-0.9335880E+03)
 number of electron     104.0000000 magnetization      13.9920000
 augmentation part      104.0000000 magnetization      13.9920000

 Free energy of the ion-electron system (eV)
  ---------------------------------------------------
  alpha Z        PSCENC =       774.91026753
  Ewald energy   TEWEN  =     -8328.04883800
  -Hartree energ DENC   =     -2563.37739877
  -exchange      EXHF   =         0.00000000
  -V(xc)+E(xc)   XCENC  =       439.14234780
  PAW double counting   =      8843.73633974    -9112.77349534
  entropy T*S    EENTRO =         0.00000000
  eigenvalues    EBANDS =      -714.41347501
  atomic energy  EATOM  =     10792.87137396
  Solvation  Ediel_sol  =         0.00000000
  ---------------------------------------------------
  free energy    TOTEN  =       132.04712192 eV

  energy without entropy =      132.04712192  energy(sigma->0) =      132.04712192


--------------------------------------------------------------------------------------------------------




--------------------------------------- Iteration      1(   3)  ---------------------------------------


     EDDAV:  cpu time      8.7267: real time      8.7323
 BZINTS: Fermi energy:    6.957632;  104.000000 electrons
         Band energy:-0.964117E+03;  BLOECHL correction:   -0.033629
       DOS:  cpu time      0.2116: real time      0.2117
    --------------------------------------------
      LOOP:  cpu time      8.9384: real time      8.9440

 eigenvalue-minimisations  : 22192
 total energy-change (2. order) :-0.2497036E+03  (-0.2369130E+03)
 number of electron     104.0000000 magnetization      13.9920000
 augmentation part      104.0000000 magnetization      13.9920000

 Free energy of the ion-electron system (eV)
  ---------------------------------------------------
  alpha Z        PSCENC =       774.91026753
  Ewald energy   TEWEN  =     -8328.04883800
  -Hartree energ DENC   =     -2563.37739877
  -exchange      EXHF   =         0.00000000
  -V(xc)+E(xc)   XCENC  =       439.14234780
  PAW double counting   =      8843.73633974    -9112.77349534
  entropy T*S    EENTRO =         0.00000000
  eigenvalues    EBANDS =      -964.11706126
  atomic energy  EATOM  =     10792.87137396
  Solvation  Ediel_sol  =         0.00000000
  ---------------------------------------------------
  free energy    TOTEN  =      -117.65646433 eV

  energy without entropy =     -117.65646433  energy(sigma->0) =     -117.65646433


--------------------------------------------------------------------------------------------------------




--------------------------------------- Iteration      1(   4)  ---------------------------------------


     EDDAV:  cpu time      9.7252: real time      9.7310
 BZINTS: Fermi energy:    6.289648;  104.000000 electrons
         Band energy:-0.986690E+03;  BLOECHL correction:   -0.001283
       DOS:  cpu time      0.1994: real time      0.1994
    --------------------------------------------
      LOOP:  cpu time      9.9246: real time      9.9304

 eigenvalue-minimisations  : 25168
 total energy-change (2. order) :-0.2257326E+02  (-0.2210457E+02)
 number of electron     104.0000000 magnetization      13.9920000
 augmentation part      104.0000000 magnetization      13.9920000

 Free energy of the ion-electron system (eV)
  ---------------------------------------------------
  alpha Z        PSCENC =       774.91026753
  Ewald energy   TEWEN  =     -8328.04883800
  -Hartree energ DENC   =     -2563.37739877
  -exchange      EXHF   =         0.00000000
  -V(xc)+E(xc)   XCENC  =       439.14234780
  PAW double counting   =      8843.73633974    -9112.77349534
  entropy T*S    EENTRO =         0.00000000
  eigenvalues    EBANDS =      -986.69031840
  atomic energy  EATOM  =     10792.87137396
  Solvation  Ediel_sol  =         0.00000000
  ---------------------------------------------------
  free energy    TOTEN  =      -140.22972146 eV

  energy without entropy =     -140.22972146  energy(sigma->0) =     -140.22972146


--------------------------------------------------------------------------------------------------------




--------------------------------------- Iteration      1(   5)  ---------------------------------------


     EDDAV:  cpu time     12.7210: real time     12.7286
 BZINTS: Fermi energy:    6.259702;  104.000000 electrons
         Band energy:-0.988193E+03;  BLOECHL correction:   -0.000713
       DOS:  cpu time      0.2101: real time      0.2102
    --------------------------------------------
      LOOP:  cpu time     12.9311: real time     12.9388

 eigenvalue-minimisations  : 34272
 total energy-change (2. order) :-0.1503153E+01  (-0.1479062E+01)
 number of electron     104.0000000 magnetization      13.9920000
 augmentation part      104.0000000 magnetization      13.9920000

 Free energy of the ion-electron system (eV)
  ---------------------------------------------------
  alpha Z        PSCENC =       774.91026753
  Ewald energy   TEWEN  =     -8328.04883800
  -Hartree energ DENC   =     -2563.37739877
  -exchange      EXHF   =         0.00000000
  -V(xc)+E(xc)   XCENC  =       439.14234780
  PAW double counting   =      8843.73633974    -9112.77349534
  entropy T*S    EENTRO =         0.00000000
  eigenvalues    EBANDS =      -988.19347181
  atomic energy  EATOM  =     10792.87137396
  Solvation  Ediel_sol  =         0.00000000
  ---------------------------------------------------
  free energy    TOTEN  =      -141.73287487 eV

  energy without entropy =     -141.73287487  energy(sigma->0) =     -141.73287487


--------------------------------------------------------------------------------------------------------




--------------------------------------- Iteration      1(   6)  ---------------------------------------


     EDDAV:  cpu time     11.3027: real time     11.3085
 BZINTS: Fermi energy:    6.259004;  104.000000 electrons
         Band energy:-0.988237E+03;  BLOECHL correction:   -0.000701
       DOS:  cpu time      0.2057: real time      0.2058
    CHARGE:  cpu time      0.3104: real time      0.3105
    MIXING:  cpu time      0.0013: real time      0.0013
    --------------------------------------------
      LOOP:  cpu time     11.8200: real time     11.8260

 eigenvalue-minimisations  : 30280
 total energy-change (2. order) :-0.4323667E-01  (-0.4311750E-01)
 number of electron     104.0000002 magnetization      12.3984014
 augmentation part       21.4233091 magnetization      10.6986576

 Broyden mixing:
  rms(total) = 0.53289E+01    rms(broyden)= 0.53286E+01
  rms(prec ) = 0.73501E+01
  weight for this iteration     100.00

 Free energy of the ion-electron system (eV)
  ---------------------------------------------------
  alpha Z        PSCENC =       774.91026753
  Ewald energy   TEWEN  =     -8328.04883800
  -Hartree energ DENC   =     -2563.37739877
  -exchange      EXHF   =         0.00000000
  -V(xc)+E(xc)   XCENC  =       439.14234780
  PAW double counting   =      8843.73633974    -9112.77349534
  entropy T*S    EENTRO =         0.00000000
  eigenvalues    EBANDS =      -988.23670848
  atomic energy  EATOM  =     10792.87137396
  Solvation  Ediel_sol  =         0.00000000
  ---------------------------------------------------
  free energy    TOTEN  =      -141.77611154 eV

  energy without entropy =     -141.77611154  energy(sigma->0) =     -141.77611154


--------------------------------------------------------------------------------------------------------




--------------------------------------- Iteration      1(   7)  ---------------------------------------


    POTLOK:  cpu time      0.0069: real time      0.0081
    SETDIJ:  cpu time      1.4200: real time      1.4203
     EDDAV:  cpu time     10.4818: real time     10.4872
 BZINTS: Fermi energy:    1.614631;  104.000000 electrons
         Band energy:-0.101067E+04;  BLOECHL correction:   -0.011373
       DOS:  cpu time      0.2032: real time      0.2032
    CHARGE:  cpu time      0.3054: real time      0.3055
    MIXING:  cpu time      0.0043: real time      0.0272
    --------------------------------------------
      LOOP:  cpu time     12.4217: real time     12.4516

 eigenvalue-minimisations  : 27864
 total energy-change (2. order) : 0.3881598E+01  (-0.2218480E+02)
 number of electron     104.0000002 magnetization      10.6529730
 augmentation part       30.2542994 magnetization       9.6765360

 Broyden mixing:
  rms(total) = 0.85320E+01    rms(broyden)= 0.85312E+01
  rms(prec ) = 0.16028E+02
  weight for this iteration     100.00

 eigenvalues of (default mixing * dielectric matrix)
  average eigenvalue GAMMA=   0.3128
  0.3128

 Free energy of the ion-electron system (eV)
  ---------------------------------------------------
  alpha Z        PSCENC =       774.91026753
  Ewald energy   TEWEN  =     -8328.04883800
  -Hartree energ DENC   =     -2567.14310424
  -exchange      EXHF   =         0.00000000
  -V(xc)+E(xc)   XCENC  =       446.27817254
  PAW double counting   =     10356.90635897   -10602.99745494
  entropy T*S    EENTRO =         0.00000000
  eigenvalues    EBANDS =     -1010.67128904
  atomic energy  EATOM  =     10792.87137396
  Solvation  Ediel_sol  =         0.00000000
  ---------------------------------------------------
  free energy    TOTEN  =      -137.89451322 eV

  energy without entropy =     -137.89451322  energy(sigma->0) =     -137.89451322


--------------------------------------------------------------------------------------------------------




--------------------------------------- Iteration      1(   8)  ---------------------------------------


    POTLOK:  cpu time      0.0073: real time      0.0077
    SETDIJ:  cpu time      1.4324: real time      1.4329
     EDDAV:  cpu time     10.3116: real time     10.3164
 BZINTS: Fermi energy:    6.393469;  104.000000 electrons
         Band energy:-0.897492E+03;  BLOECHL correction:    0.000000
       DOS:  cpu time      0.1064: real time      0.1064
    CHARGE:  cpu time      0.3023: real time      0.3025
    MIXING:  cpu time      0.0015: real time      0.0015
    --------------------------------------------
      LOOP:  cpu time     12.1615: real time     12.1674

 eigenvalue-minimisations  : 26848
 total energy-change (2. order) :-0.5635297E+02  (-0.3271401E+02)
 number of electron     104.0000001 magnetization       8.2196102
 augmentation part       12.4725719 magnetization       8.3070380

 Broyden mixing:
  rms(total) = 0.87765E+01    rms(broyden)= 0.87761E+01
  rms(prec ) = 0.18079E+02
  weight for this iteration     100.00

 eigenvalues of (default mixing * dielectric matrix)
  average eigenvalue GAMMA=   0.2270
  0.3575  0.0965

 Free energy of the ion-electron system (eV)
  ---------------------------------------------------
  alpha Z        PSCENC =       774.91026753
  Ewald energy   TEWEN  =     -8328.04883800
  -Hartree energ DENC   =     -2679.71888530
  -exchange      EXHF   =         0.00000000
  -V(xc)+E(xc)   XCENC  =       446.25817738
  PAW double counting   =     10834.14877243   -11137.17596566
  entropy T*S    EENTRO =         0.00000000
  eigenvalues    EBANDS =      -897.49238870
  atomic energy  EATOM  =     10792.87137396
  Solvation  Ediel_sol  =         0.00000000
  ---------------------------------------------------
  free energy    TOTEN  =      -194.24748636 eV

  energy without entropy =     -194.24748636  energy(sigma->0) =     -194.24748636


--------------------------------------------------------------------------------------------------------




--------------------------------------- Iteration      1(   9)  ---------------------------------------


    POTLOK:  cpu time      0.0069: real time      0.0077
    SETDIJ:  cpu time      1.4251: real time      1.4257
     EDDAV:  cpu time     10.4989: real time     10.5044
 BZINTS: Fermi energy:    5.773232;  104.000000 electrons
         Band energy:-0.901576E+03;  BLOECHL correction:   -0.000531
       DOS:  cpu time      0.2047: real time      0.2048
    CHARGE:  cpu time      0.3074: real time      0.3075
    MIXING:  cpu time      0.0013: real time      0.0013
    --------------------------------------------
      LOOP:  cpu time     12.4444: real time     12.4515

 eigenvalue-minimisations  : 27864
 total energy-change (2. order) : 0.7164047E+02  (-0.5701137E+01)
 number of electron     104.0000002 magnetization       9.0673868
 augmentation part       21.1581536 magnetization       7.8119600

 Broyden mixing:
  rms(total) = 0.30257E+01    rms(broyden)= 0.30256E+01
  rms(prec ) = 0.38568E+01
  weight for this iteration     100.00

 eigenvalues of (default mixing * dielectric matrix)
  average eigenvalue GAMMA=   0.6388
  1.5136  0.2878  0.1149

 Free energy of the ion-electron system (eV)
  ---------------------------------------------------
  alpha Z        PSCENC =       774.91026753
  Ewald energy   TEWEN  =     -8328.04883800
  -Hartree energ DENC   =     -2619.45976477
  -exchange      EXHF   =         0.00000000
  -V(xc)+E(xc)   XCENC  =       441.66747802
  PAW double counting   =     11128.95538212   -11411.92661520
  entropy T*S    EENTRO =         0.00000000
  eigenvalues    EBANDS =      -901.57629638
  atomic energy  EATOM  =     10792.87137396
  Solvation  Ediel_sol  =         0.00000000
  ---------------------------------------------------
  free energy    TOTEN  =      -122.60701271 eV

  energy without entropy =     -122.60701271  energy(sigma->0) =     -122.60701271


--------------------------------------------------------------------------------------------------------




--------------------------------------- Iteration      1(  10)  ---------------------------------------


    POTLOK:  cpu time      0.0068: real time      0.0077
    SETDIJ:  cpu time      1.4272: real time      1.4277
     EDDAV:  cpu time     11.5298: real time     11.5364
 BZINTS: Fermi energy:    5.244191;  104.000000 electrons
         Band energy:-0.921785E+03;  BLOECHL correction:    0.000000
       DOS:  cpu time      0.1050: real time      0.1050
    CHARGE:  cpu time      0.3074: real time      0.3075
    MIXING:  cpu time      0.0014: real time      0.0014
    --------------------------------------------
      LOOP:  cpu time     13.3776: real time     13.3858

 eigenvalue-minimisations  : 30888
 total energy-change (2. order) : 0.2907933E+00  (-0.1385368E+01)
 number of electron     104.0000002 magnetization       9.2611240
 augmentation part       21.2073557 magnetization       8.1718760

 Broyden mixing:
  rms(total) = 0.25421E+01    rms(broyden)= 0.25420E+01
  rms(prec ) = 0.37917E+01
  weight for this iteration     100.00

 eigenvalues of (default mixing * dielectric matrix)
  average eigenvalue GAMMA=   0.5579
  1.5827  0.1190  0.2649  0.2649

 Free energy of the ion-electron system (eV)
  ---------------------------------------------------
  alpha Z        PSCENC =       774.91026753
  Ewald energy   TEWEN  =     -8328.04883800
  -Hartree energ DENC   =     -2599.11386116
  -exchange      EXHF   =         0.00000000
  -V(xc)+E(xc)   XCENC  =       442.47917415
  PAW double counting   =     12273.43790012   -12557.06708692
  entropy T*S    EENTRO =         0.00000000
  eigenvalues    EBANDS =      -921.78514907
  atomic energy  EATOM  =     10792.87137396
  Solvation  Ediel_sol  =         0.00000000
  ---------------------------------------------------
  free energy    TOTEN  =      -122.31621938 eV

  energy without entropy =     -122.31621938  energy(sigma->0) =     -122.31621938


--------------------------------------------------------------------------------------------------------




--------------------------------------- Iteration      1(  11)  ---------------------------------------


    POTLOK:  cpu time      0.0068: real time      0.0077
    SETDIJ:  cpu time      1.4292: real time      1.4298
     EDDAV:  cpu time     10.5190: real time     10.5240
 BZINTS: Fermi energy:    5.143532;  104.000000 electrons
         Band energy:-0.924716E+03;  BLOECHL correction:    0.000000
       DOS:  cpu time      0.1080: real time      0.1080
    CHARGE:  cpu time      0.3062: real time      0.3065
    MIXING:  cpu time      0.0015: real time      0.0015
    --------------------------------------------
      LOOP:  cpu time     12.3707: real time     12.3776

 eigenvalue-minimisations  : 27776
 total energy-change (2. order) : 0.3105240E+00  (-0.3497787E+00)
 number of electron     104.0000002 magnetization      10.5001959
 augmentation part       21.1514746 magnetization       9.4130959

 Broyden mixing:
  rms(total) = 0.24219E+01    rms(broyden)= 0.24218E+01
  rms(prec ) = 0.36652E+01
  weight for this iteration     100.00

 eigenvalues of (default mixing * dielectric matrix)
  average eigenvalue GAMMA=   0.7346
  2.1961  0.8995  0.3481  0.1197  0.1098

 Free energy of the ion-electron system (eV)
  ---------------------------------------------------
  alpha Z        PSCENC =       774.91026753
  Ewald energy   TEWEN  =     -8328.04883800
  -Hartree energ DENC   =     -2596.78667691
  -exchange      EXHF   =         0.00000000
  -V(xc)+E(xc)   XCENC  =       442.76461345
  PAW double counting   =     12444.66135843   -12727.66208707
  entropy T*S    EENTRO =         0.00000000
  eigenvalues    EBANDS =      -924.71570673
  atomic energy  EATOM  =     10792.87137396
  Solvation  Ediel_sol  =         0.00000000
  ---------------------------------------------------
  free energy    TOTEN  =      -122.00569534 eV

  energy without entropy =     -122.00569534  energy(sigma->0) =     -122.00569534


--------------------------------------------------------------------------------------------------------




--------------------------------------- Iteration      1(  12)  ---------------------------------------


    POTLOK:  cpu time      0.0073: real time      0.0079
    SETDIJ:  cpu time      1.4235: real time      1.4240
     EDDAV:  cpu time     10.7903: real time     10.7951
 BZINTS: Fermi energy:    2.602906;  104.000000 electrons
         Band energy:-0.942506E+03;  BLOECHL correction:   -0.000967
       DOS:  cpu time      0.1966: real time      0.1967
    CHARGE:  cpu time      0.3056: real time      0.3057
    MIXING:  cpu time      0.0015: real time      0.0015
    --------------------------------------------
      LOOP:  cpu time     12.7248: real time     12.7309

 eigenvalue-minimisations  : 28560
 total energy-change (2. order) : 0.2691632E+01  (-0.5320788E+00)
 number of electron     104.0000002 magnetization      11.0225946
 augmentation part       21.2342011 magnetization      10.1094877

 Broyden mixing:
  rms(total) = 0.15936E+01    rms(broyden)= 0.15935E+01
  rms(prec ) = 0.25901E+01
  weight for this iteration     100.00

 eigenvalues of (default mixing * dielectric matrix)
  average eigenvalue GAMMA=   0.7238
  2.1899  1.0369  0.5445  0.3343  0.1187  0.1187

 Free energy of the ion-electron system (eV)
  ---------------------------------------------------
  alpha Z        PSCENC =       774.91026753
  Ewald energy   TEWEN  =     -8328.04883800
  -Hartree energ DENC   =     -2583.03880215
  -exchange      EXHF   =         0.00000000
  -V(xc)+E(xc)   XCENC  =       444.74452173
  PAW double counting   =     13430.52040710   -13708.76689375
  entropy T*S    EENTRO =         0.00000000
  eigenvalues    EBANDS =      -942.50609998
  atomic energy  EATOM  =     10792.87137396
  Solvation  Ediel_sol  =         0.00000000
  ---------------------------------------------------
  free energy    TOTEN  =      -119.31406355 eV

  energy without entropy =     -119.31406355  energy(sigma->0) =     -119.31406355


--------------------------------------------------------------------------------------------------------




--------------------------------------- Iteration      1(  13)  ---------------------------------------


    POTLOK:  cpu time      0.0069: real time      0.0077
    SETDIJ:  cpu time      1.4186: real time      1.4191
     EDDAV:  cpu time     11.3158: real time     11.3237
 BZINTS: Fermi energy:    2.079032;  104.000000 electrons
         Band energy:-0.952274E+03;  BLOECHL correction:    0.000000
       DOS:  cpu time      0.1054: real time      0.1055
    CHARGE:  cpu time      0.3078: real time      0.3082
    MIXING:  cpu time      0.0017: real time      0.0017
    --------------------------------------------
      LOOP:  cpu time     13.1563: real time     13.1659

 eigenvalue-minimisations  : 30112
 total energy-change (2. order) : 0.2992694E+00  (-0.1697031E+00)
 number of electron     104.0000002 magnetization      11.3038462
 augmentation part       21.3718926 magnetization      10.5486464

 Broyden mixing:
  rms(total) = 0.13591E+01    rms(broyden)= 0.13590E+01
  rms(prec ) = 0.21546E+01
  weight for this iteration     100.00

 eigenvalues of (default mixing * dielectric matrix)
  average eigenvalue GAMMA=   0.7017
  2.1343  1.2413  0.6023  0.3474  0.3474  0.1169  0.1220

 Free energy of the ion-electron system (eV)
  ---------------------------------------------------
  alpha Z        PSCENC =       774.91026753
  Ewald energy   TEWEN  =     -8328.04883800
  -Hartree energ DENC   =     -2576.97122072
  -exchange      EXHF   =         0.00000000
  -V(xc)+E(xc)   XCENC  =       445.25205757
  PAW double counting   =     13438.33364473   -13713.08825166
  entropy T*S    EENTRO =         0.00000000
  eigenvalues    EBANDS =      -952.27382762
  atomic energy  EATOM  =     10792.87137396
  Solvation  Ediel_sol  =         0.00000000
  ---------------------------------------------------
  free energy    TOTEN  =      -119.01479420 eV

  energy without entropy =     -119.01479420  energy(sigma->0) =     -119.01479420


--------------------------------------------------------------------------------------------------------




--------------------------------------- Iteration      1(  14)  ---------------------------------------


    POTLOK:  cpu time      0.0073: real time      0.0077
    SETDIJ:  cpu time      1.4410: real time      1.4418
     EDDAV:  cpu time     10.7004: real time     10.7058
 BZINTS: Fermi energy:    1.671573;  104.000000 electrons
         Band energy:-0.959593E+03;  BLOECHL correction:   -0.006693
       DOS:  cpu time      0.1974: real time      0.1975
    CHARGE:  cpu time      0.3059: real time      0.3060
    MIXING:  cpu time      0.0016: real time      0.0016
    --------------------------------------------
      LOOP:  cpu time     12.6536: real time     12.6604

 eigenvalue-minimisations  : 28552
 total energy-change (2. order) :-0.2110348E+00  (-0.1840428E+00)
 number of electron     104.0000002 magnetization      11.6158325
 augmentation part       21.8296114 magnetization      11.3159994

 Broyden mixing:
  rms(total) = 0.97117E+00    rms(broyden)= 0.97110E+00
  rms(prec ) = 0.13634E+01
  weight for this iteration     100.00

 eigenvalues of (default mixing * dielectric matrix)
  average eigenvalue GAMMA=   0.7342
  1.9431  1.9431  0.6498  0.3360  0.3815  0.3815  0.1172  0.1215

 Free energy of the ion-electron system (eV)
  ---------------------------------------------------
  alpha Z        PSCENC =       774.91026753
  Ewald energy   TEWEN  =     -8328.04883800
  -Hartree energ DENC   =     -2572.78717046
  -exchange      EXHF   =         0.00000000
  -V(xc)+E(xc)   XCENC  =       445.55320883
  PAW double counting   =     13425.44167070   -13697.57365726
  entropy T*S    EENTRO =         0.00000000
  eigenvalues    EBANDS =      -959.59268427
  atomic energy  EATOM  =     10792.87137396
  Solvation  Ediel_sol  =         0.00000000
  ---------------------------------------------------
  free energy    TOTEN  =      -119.22582896 eV

  energy without entropy =     -119.22582896  energy(sigma->0) =     -119.22582896


--------------------------------------------------------------------------------------------------------




--------------------------------------- Iteration      1(  15)  ---------------------------------------


    POTLOK:  cpu time      0.0068: real time      0.0082
    SETDIJ:  cpu time      1.4224: real time      1.4232
     EDDAV:  cpu time     10.9861: real time     10.9926
 BZINTS: Fermi energy:    1.525325;  104.000000 electrons
         Band energy:-0.967630E+03;  BLOECHL correction:   -0.009728
       DOS:  cpu time      0.1825: real time      0.1825
    CHARGE:  cpu time      0.3056: real time      0.3056
    MIXING:  cpu time      0.0017: real time      0.0017
    --------------------------------------------
      LOOP:  cpu time     12.9051: real time     12.9138

 eigenvalue-minimisations  : 29224
 total energy-change (2. order) :-0.3591912E+00  (-0.3284706E-01)
 number of electron     104.0000002 magnetization      11.6498234
 augmentation part       22.1431006 magnetization      11.6341511

 Broyden mixing:
  rms(total) = 0.87699E+00    rms(broyden)= 0.87695E+00
  rms(prec ) = 0.14754E+01
  weight for this iteration     100.00

 eigenvalues of (default mixing * dielectric matrix)
  average eigenvalue GAMMA=   0.8000
  2.3998  1.8818  0.7811  0.5843  0.5843  0.3479  0.3820  0.1171  0.1216

 Free energy of the ion-electron system (eV)
  ---------------------------------------------------
[...]
  250        set_dd_magatom                        0.000005                            1   3
  251        set_dd_paw                            1.368075                            1   3
  252          m_sumb_d                              0.465112                          7   4
  253        strkin                                0.001252                            1   3
  254          m_sumb_d                              0.000005                          1   4
  255        strelo                                0.001288                            1   3
  256          m_sumb_d                              0.000036                          2   4
  257        strnlr                                3.810508                            1   3
  258          rspher_all                            0.069710                          9   4
  259          phaser                                0.959668                        567   4
  260          rpro_isp                              2.764857                        567   4
  261            fftwav_mpi                            0.631894                    20412   5
  262              fftwav                                0.607244                  20412   6
  263                fft3d                                 0.138446                20412   7
  264            rpromu_acc                            0.994534                     5670   5
  265          m_sumb_d                              0.000012                          1   4
  266        fft3d_mpi                             0.003188                           22   3
  267          fftbrc_mpi                            0.002494                         22   4
  268            fftbas_plan_mpi                       0.002479                       22   5
  269              map_forward                           0.000864                     20   6
  270                map_gather                            0.000194                   10   7
  271                m_alltoallv_z                         0.000134                   10   7
  272                map_scatter                           0.000390                   10   7
  273              map_backward                          0.000974                     24   6
  274                map_gather                            0.000238                   12   7
  275                m_alltoallv_z                         0.000132                   12   7
  276                map_scatter                           0.000431                   12   7
  277        m_sumb_d                              0.000028                            5   3
  278        forhar                                0.001028                            2   3
  279          m_sumb_d                              0.000047                          2   4
  280        strehar                               0.000882                            1   3
  281          m_sumb_d                              0.000072                          1   4
  282        chggra                                0.000730                            1   3
  283          fft3d_mpi                             0.000432                          3   4
  284            fftbrc_mpi                            0.000336                        3   5
  285              fftbas_plan_mpi                       0.000336                      3   6
  286                map_forward                           0.000175                    4   7
  287                  map_gather                            0.000039                  2   8
  288                  m_alltoallv_z                         0.000024                  2   8
  289                  map_scatter                           0.000084                  2   8
  290                map_backward                          0.000076                    2   7
  291                  map_gather                            0.000019                  1   8
  292                  m_alltoallv_z                         0.000011                  1   8
  293                  map_scatter                           0.000032                  1   8
  294          m_sumb_d                              0.000009                          2   4
  295          pothar                                0.000074                          1   4
  296            m_sumb_d                              0.000006                        1   5
  297        brmix                                 0.003775                            1   3
  298          m_sumb_d                              0.000024                          6   4
  299          brpre                                 0.000017                          2   4
  300          setg0                                 0.000473                          1   4
  301          broyd                                 0.002697                          1   4
  302            m_sumb_d                              0.000175                       39   5
  303            brget                                 0.000605                      169   5
  304            brsav                                 0.000129                       37   5
  305        m_bcast_d                             0.000029                            2   3
  306      potlok                                0.019810                              2   2
  307        fft3d_mpi                             0.013012                           36   3
  308          fftbrc_mpi                            0.011158                         36   4
  309            fftbas_plan_mpi                       0.011136                       36   5
  310              map_forward                           0.003336                     40   6
  311                map_gather                            0.001085                   24   7
  312                m_alltoallv_z                         0.001113                   24   7
  313                map_scatter                           0.000956                   24   7
  314              map_backward                          0.002721                     32   6
  315                map_gather                            0.000847                   16   7
  316                m_alltoallv_z                         0.000896                   16   7
  317                map_scatter                           0.000806                   16   7
  318              dfftw_execute                         0.003481                     30   6
  319        m_sumb_d                              0.000023                            5   3
  320        pothar                                0.000748                            2   3
  321          m_sumb_d                              0.000072                          2   4
  322        m_bcast_d                             0.001146                            4   3
  323      potlok_metagga                        0.000000                              1   2
  324      set_dd_magatom                        0.000004                              1   2
  325      set_dd_paw                            1.361891                              1   2
  326        m_sumb_d                              0.451896                            7   3
  327      augmentation_charge                   0.061985                              1   2
  328        fft3d_mpi                             0.018533                            2   3
  329          fftbrc_mpi                            0.016513                          2   4
  330            fftbas_plan_mpi                       0.016511                        2   5
  331              dfftw_execute                         0.010750                      6   6
  332              map_backward                          0.005551                      4   6
  333                map_gather                            0.001417                    2   7
  334                m_alltoallv_z                         0.002855                    2   7
  335                map_scatter                           0.001273                    2   7
  336      densta                                7.856167                              1   2
 
 Flat profile
 ============
 
             routine name                   CPU           calls
 ---------------------------------------------------------------
 eddav                                  75.958363          38
 lapack                                 72.515587      159260
 m_sumb_d                               62.442335      485465
 raccmu_                                39.116117      159260
 redis_pw                               31.883260      879204
 set_dd_paw                             31.630872          35
 m_alltoall_d                           16.153621     2327164
 densta                                 14.337282          39
 init_acc                               10.978914           1
 phaser                                  9.227331        5607
 total_time                              8.985806           1
 eccp                                    7.616825       86184
 redis_proj                              7.395947     1111666
 fft3d                                   6.981382      954930
 fftwav                                  6.168909      636410
 orth1                                   4.999105      478158
 rpromu_acc                              4.707804      124358
 racc0mu_acc                             4.681801      159260
 w1_copy                                 4.593822      955560
 overl                                   4.566467      550982
 hamiltmu                                3.787113      159260
 m_bcast_z                               3.543514      168332
 soft_charge                             3.520623          33
 setup_precond                           3.103620       86184
 m_bcast_d                               2.637128      318595
 setdij_                                 2.457123          61
 overl_mu                                2.442585      159260
 acc_init_cublas                         2.439940           1
 ggemm                                   2.072742      202352
 rpro_isp                                1.579121         819
 pw_charge                               1.492039       56070
 vhamil                                  1.479072      318520
 augmentation_charge                     1.475328          34
 kinhamil                                1.457104      318520
 dfftw_execute                           1.414401        1212
 fftext_mpi                              1.346357      318520
 newband                                 1.300245      164048
 apply_precond                           1.266725      232336
 depsum                                  1.228183          33
 fftwav_mpi                              0.848965      636410
 acc_init_cusolver                       0.828768           1
 m_alltoallv_z                           0.495355        1449
 fft3d_mpi                               0.328884      319833
 sphpro_fast                             0.249006           2
 map_scatter                             0.193896        1449
 map_gather                              0.192494        1449
 lincom                                  0.162130        4914
 acc_cufft_makeplan                      0.120682          19
 w1_projall                              0.110267      116168
 rspher_all                              0.104921          14
 potlok                                  0.104700          35
 elmin                                   0.094849           1
 fftbas_plan_mpi                         0.079591        1313
 proall                                  0.068429           1
 broyd                                   0.047013          33
 orthch                                  0.045234           1
 truncate_high_frequency_w1              0.033819      404704
 choleski                                0.025527         126
 brmix                                   0.019435          33
 force_and_stress                        0.019378           1
 setg0                                   0.016264          35
 strnlr                                  0.016261           1
 brget                                   0.009127        2931
 map_backward                            0.006721        1374
 map_forward                             0.006530        1252
 set_charge                              0.005777          33
 fornlr                                  0.005607           1
 stufak                                  0.003166           1
 pothar                                  0.003116          36
 brsav                                   0.002195         699
 strelo                                  0.001252           1
 strkin                                  0.001247           1
 forhar                                  0.000981           2
 fft_gq                                  0.000919          33
 strehar                                 0.000810           1
 fftbrc_mpi                              0.000775        1313
 brpre                                   0.000631          66
 forloc                                  0.000544           1
 fewald                                  0.000367           1
 rsp                                     0.000263           1
 chggra                                  0.000215           1
 set_dd_magatom                          0.000160          35
 vectorpot                               0.000139          34
 brgrid                                  0.000120           1
 fordep                                  0.000061           1
 crpa_reader                             0.000028           1
 rcp                                     0.000018           1
 acc_cufft_makeplans                     0.000011           3
 potlok_metagga                          0.000001          34
 rotate_active_occupied_orbital          0.000000           1
 redis_pw_over_bands                     0.000000           1
 ---------------------------------------------------------------
  summed up times     469.2411658763885     
 
 Accumulative profile
 ====================
 
             routine name                   CPU           calls
 ---------------------------------------------------------------
 total_time                            469.241166           1
 elmin                                 426.407693           1
 eddav                                 362.333185          38
 lapack                                 72.515587      159260
 m_sumb_d                               62.442335      485465
 hamiltmu                               56.630014      159260
 set_dd_paw                             47.746864          35
 raccmu_                                46.240503      159260
 redis_pw                               39.815470      879204
 newband                                18.626282      164048
 m_alltoall_d                           16.153621     2327164
 redis_proj                             15.617358     1111666
 densta                                 14.337282          39
 fftwav_mpi                             11.774573      636410
 init_acc                               10.978914           1
 fftwav                                 10.925607      636410
 set_charge                             10.113896          33
 phaser                                  9.227331        5607
 force_and_stress                        8.487072           1
 eccp                                    7.616825       86184
 fft3d                                   6.981382      954930
 soft_charge                             6.812929          33
 kinhamil                                5.123326      318520
 orth1                                   4.999105      478158
 fft3d_mpi                               4.943331      319833
 rpromu_acc                              4.707804      124358
 racc0mu_acc                             4.681801      159260
 w1_copy                                 4.593822      955560
 overl                                   4.566467      550982
 setdij_                                 4.016052          61
 strnlr                                  3.810508           1
 rpro_isp                                3.798753         819
 fftext_mpi                              3.666222      318520
 m_bcast_z                               3.543514      168332
 w1_projall                              3.474293      116168
 setup_precond                           3.103620       86184
 m_bcast_d                               2.637128      318595
 overl_mu                                2.442585      159260
 acc_init_cublas                         2.439940           1
 fftbrc_mpi                              2.389764        1313
 fftbas_plan_mpi                         2.388989        1313
 augmentation_charge                     2.124035          34
 ggemm                                   2.072742      202352
 pw_charge                               1.492039       56070
 vhamil                                  1.479072      318520
 dfftw_execute                           1.414401        1212
 fornlr                                  1.267565           1
 apply_precond                           1.266725      232336
 depsum                                  1.233141          33
 acc_init_cusolver                       0.828768           1
 map_forward                             0.566321        1252
 orthch                                  0.508561           1
 m_alltoallv_z                           0.495355        1449
 potlok                                  0.420527          35
 fordep                                  0.392771           1
 map_backward                            0.328676        1374
 proall                                  0.286161           1
 sphpro_fast                             0.258657           2
 map_scatter                             0.193896        1449
 map_gather                              0.192494        1449
 lincom                                  0.162130        4914
 acc_cufft_makeplans                     0.120693           3
 acc_cufft_makeplan                      0.120682          19
 rspher_all                              0.104921          14
 brmix                                   0.099072          33
 broyd                                   0.061626          33
 fft_gq                                  0.034928          33
 truncate_high_frequency_w1              0.033819      404704
 choleski                                0.025527         126
 setg0                                   0.016264          35
 brget                                   0.009127        2931
 pothar                                  0.003444          36
 stufak                                  0.003166           1
 brsav                                   0.002195         699
 strelo                                  0.001288           1
 strkin                                  0.001252           1
 forhar                                  0.001028           2
 strehar                                 0.000882           1
 fewald                                  0.000775           1
 chggra                                  0.000730           1
 brpre                                   0.000631          66
 forloc                                  0.000581           1
 rsp                                     0.000263           1
 set_dd_magatom                          0.000160          35
 vectorpot                               0.000139          34
 brgrid                                  0.000120           1
 crpa_reader                             0.000028           1
 rcp                                     0.000018           1
 potlok_metagga                          0.000001          34
 rotate_active_occupied_orbital          0.000000           1
 redis_pw_over_bands                     0.000000           1
 ---------------------------------------------------------------
 
Profiling took   1.931808  0.966253  0.003200  0.003131 seconds
Profiling took   1.197734 seconds
