 vasp.6.3.2 27Jun22 (build Jul  3 2023 11:46:21) complex                         
 executed on    LinuxNV_CrayMPICH date 2024.04.21  00:10:45
 running on    4 total cores
 distrk:  each k-point on    1 cores,    4 groups
 distr:  one band on NCORE=   1 cores,    1 groups


--------------------------------------------------------------------------------------------------------


 INCAR:
   ALGO = All
   EDIFF = 0.00185
   ENCUT = 520.0
   IBRION = -1
   ISIF = 3
   ISMEAR = -5
   ISPIN = 2
   KPAR = 8
   LAECHG = True
   LASPH = True
   LCHARG = True
   LORBIT = 11
   LREAL = Auto
   LVHAR = True
   LWAVE = False
   MAGMOM = 11*0.6 4*7.0 22*0.6
   NELM = 1000
   NPAR = 4
   NSW = 0
   PREC = Accurate
   SIGMA = 0.05

 POTCAR:    PAW_PBE Yb_2 06Sep2000                
 POTCAR:    PAW_PBE Gd 23Dec2003                  
 POTCAR:    PAW_PBE Se 06Sep2000                  
 POTCAR:    PAW_PBE Yb_2 06Sep2000                
   SHA256 =  447ea688f1b29a5c5d62bbadb2b3e4a6902763696c282b59e85a911f7e119eeb Yb_2/POTCAR           
   COPYR  = (c) Copyright 06Sep2000 Georg Kresse                                                    
   COPYR  = This file is part of the software VASP. Any use, copying, and all other rights are regul
   COPYR  = If you do not have a valid VASP license, you may not use, copy or distribute this file. 
   VRHFIN =Yb : [core=Xe4]                                                                          
   LEXCH  = PE                                                                                      
   EATOM  =   572.3552 eV,   42.0669 Ry                                                             
                                                                                                    
   TITEL  = PAW_PBE Yb_2 06Sep2000                                                                  
   LULTRA =        F    use ultrasoft PP ?                                                          
   IUNSCR =        1    unscreen: 0-lin 1-nonlin 2-no                                               
   RPACOR =    2.400    partial core radius                                                         
   POMASS =  173.040; ZVAL   =    8.000    mass and valenz                                          
   RCORE  =    3.100    outmost cutoff radius                                                       
   RWIGS  =    3.300; RWIGS  =    1.746    wigner-seitz radius (au A)                               
   ENMAX  =  112.578; ENMIN  =   84.433 eV                                                          
   RCLOC  =    2.410    cutoff for local pot                                                        
   LCOR   =        T    correct aug charges                                                         
   LPAW   =        T    paw PP                                                                      
   EAUG   =  301.012                                                                                
   DEXC   =    0.000                                                                                
   RMAX   =    3.170    core radius for proj-oper                                                   
   RAUG   =    1.300    factor for augmentation sphere                                              
   RDEP   =    3.215    radius for radial grids                                                     
   RDEPT  =    2.473    core radius for aug-charge                                                  
                                                                                                    
   Atomic configuration                                                                             
   14 entries                                                                                       
     n  l   j            E        occ.                                                              
     1  0  0.50    -61220.9726   2.0000                                                             
     2  0  0.50    -10371.0425   2.0000                                                             
     2  1  1.50     -9138.3712   6.0000                                                             
     3  0  0.50     -2337.6588   2.0000                                                             
     3  1  1.50     -1966.2680   6.0000                                                             
     3  2  2.50     -1514.8100  10.0000                                                             
     4  0  0.50      -459.9070   2.0000                                                             
     4  1  1.50      -338.0537   6.0000                                                             
     4  2  2.50      -177.8445  10.0000                                                             
     4  3  2.50        -3.0334  14.0000                                                             
     5  0  0.50       -54.9037   2.0000                                                             
     6  0  0.50        -3.9192   2.0000                                                             
     5  1  1.50       -27.4093   6.0000                                                             
     5  2  2.50        -2.0436   0.0000                                                             
   Description                                                                                      
     l       E           TYP  RCUT    TYP  RCUT                                                     
     0     -3.9192173     23  3.100                                                                 
     0     13.6058260     23  3.100                                                                 
     1    -27.4092538     23  3.100                                                                 
     1    -28.7698364     23  3.100                                                                 
     2     -2.0435951     23  3.100                                                                 
     2      2.2720029     23  3.100                                                                 
  local pseudopotential read in
  partial core-charges read in
  partial kinetic energy density read in
  atomic valenz-charges read in
  non local Contribution for L=            0  read in
    real space projection operators read in
  non local Contribution for L=            0  read in
    real space projection operators read in
  non local Contribution for L=            1  read in
    real space projection operators read in
  non local Contribution for L=            1  read in
    real space projection operators read in
  non local Contribution for L=            2  read in
    real space projection operators read in
  non local Contribution for L=            2  read in
    real space projection operators read in
    PAW grid and wavefunctions read in
 
   number of l-projection  operators is LMAX  =            6
   number of lm-projection operators is LMMAX =           18
 
 POTCAR:    PAW_PBE Gd 23Dec2003                  
   SHA256 =  58854b40b4643190560b0e2b62d2ab46bea96585f82c6231a0f4f44b8c3188dc Gd/POTCAR             
   COPYR  = (c) Copyright 23Dec2003 Georg Kresse                                                    
   COPYR  = This file is part of the software VASP. Any use, copying, and all other rights are regul
   COPYR  = If you do not have a valid VASP license, you may not use, copy or distribute this file. 
   VRHFIN =Gd : [core=Xe4]                                                                          
   LEXCH  = PE                                                                                      
   EATOM  =  3047.6032 eV,  223.9925 Ry                                                             
                                                                                                    
   TITEL  = PAW_PBE Gd 23Dec2003                                                                    
   LULTRA =        F    use ultrasoft PP ?                                                          
   IUNSCR =        1    unscreen: 0-lin 1-nonlin 2-no                                               
   RPACOR =    2.300    partial core radius                                                         
   POMASS =  157.250; ZVAL   =   18.000    mass and valenz                                          
   RCORE  =    2.800    outmost cutoff radius                                                       
   RWIGS  =    2.800; RWIGS  =    1.482    wigner-seitz radius (au A)                               
   ENMAX  =  256.472; ENMIN  =  192.354 eV                                                          
   RCLOC  =    2.316    cutoff for local pot                                                        
   LCOR   =        T    correct aug charges                                                         
   LPAW   =        T    paw PP                                                                      
   EAUG   =  537.243                                                                                
   DEXC   =    0.000                                                                                
   RMAX   =    2.857    core radius for proj-oper                                                   
   RAUG   =    1.300    factor for augmentation sphere                                              
   RDEP   =    2.921    radius for radial grids                                                     
   RDEPT  =    2.247    core radius for aug-charge                                                  
                                                                                                    
   Atomic configuration                                                                             
   14 entries                                                                                       
     n  l   j            E        occ.                                                              
     1  0  0.50    -50087.2354   2.0000                                                             
     2  0  0.50     -8269.2182   2.0000                                                             
     2  1  1.50     -7357.3672   6.0000                                                             
     3  0  0.50     -1833.2681   2.0000                                                             
     3  1  1.50     -1550.9376   6.0000                                                             
     3  2  2.50     -1178.7204  10.0000                                                             
     4  0  0.50      -369.2978   2.0000                                                             
     4  1  1.50      -276.2601   6.0000                                                             
     4  2  2.50      -147.6611  10.0000                                                             
     5  0  0.50       -49.7260   2.0000                                                             
     6  0  0.50        -4.1254   2.0000                                                             
     5  1  1.50       -27.2538   6.0000                                                             
     5  2  2.50        -2.5337   1.0000                                                             
     4  3  2.50        -8.7140   7.0000                                                             
   Description                                                                                      
     l       E           TYP  RCUT    TYP  RCUT                                                     
     0    -49.7259557     23  2.400                                                                 
     0     -4.1254107     23  2.400                                                                 
     1    -27.2537518     23  2.400                                                                 
     1     20.4087390     23  2.400                                                                 
     2     -2.5337329     23  2.500                                                                 
     2     13.6058260     23  2.500                                                                 
     3     -8.7140389     23  2.800                                                                 
     3     -9.5240782     23  2.800                                                                 
  local pseudopotential read in
  partial core-charges read in
  partial kinetic energy density read in
  atomic valenz-charges read in
  non local Contribution for L=            0  read in
    real space projection operators read in
  non local Contribution for L=            0  read in
    real space projection operators read in
  non local Contribution for L=            1  read in
    real space projection operators read in
  non local Contribution for L=            1  read in
    real space projection operators read in
  non local Contribution for L=            2  read in
    real space projection operators read in
  non local Contribution for L=            2  read in
    real space projection operators read in
  non local Contribution for L=            3  read in
    real space projection operators read in
  non local Contribution for L=            3  read in
    real space projection operators read in
    PAW grid and wavefunctions read in
 
   number of l-projection  operators is LMAX  =            8
   number of lm-projection operators is LMMAX =           32
 
 POTCAR:    PAW_PBE Se 06Sep2000                  
   SHA256 =  eabb916e6b4c819dc065ce039373bc328651da483898f08fb9e49c498452bf12 Se/POTCAR             
   COPYR  = (c) Copyright 06Sep2000 Georg Kresse                                                    
   COPYR  = This file is part of the software VASP. Any use, copying, and all other rights are regul
   COPYR  = If you do not have a valid VASP license, you may not use, copy or distribute this file. 
   VRHFIN =Se: s2p4                                                                                 
   LEXCH  = PE                                                                                      
   EATOM  =   257.1286 eV,   18.8984 Ry                                                             
                                                                                                    
   TITEL  = PAW_PBE Se 06Sep2000                                                                    
   LULTRA =        F    use ultrasoft PP ?                                                          
   IUNSCR =        1    unscreen: 0-lin 1-nonlin 2-no                                               
   RPACOR =    1.900    partial core radius                                                         
   POMASS =   78.960; ZVAL   =    6.000    mass and valenz                                          
   RCORE  =    2.100    outmost cutoff radius                                                       
   RWIGS  =    2.200; RWIGS  =    1.164    wigner-seitz radius (au A)                               
   ENMAX  =  211.555; ENMIN  =  158.666 eV                                                          
   ICORE  =        3    local potential                                                             
   LCOR   =        T    correct aug charges                                                         
   LPAW   =        T    paw PP                                                                      
   EAUG   =  446.842                                                                                
   DEXC   =    0.000                                                                                
   RMAX   =    2.147    core radius for proj-oper                                                   
   RAUG   =    1.300    factor for augmentation sphere                                              
   RDEP   =    2.177    radius for radial grids                                                     
   RDEPT  =    1.928    core radius for aug-charge                                                  
                                                                                                    
   Atomic configuration                                                                             
   10 entries                                                                                       
     n  l   j            E        occ.                                                              
     1  0  0.50    -12503.4787   2.0000                                                             
     2  0  0.50     -1606.9547   2.0000                                                             
     2  1  1.50     -1413.3140   6.0000                                                             
     3  0  0.50      -213.4885   2.0000                                                             
     3  1  1.50      -152.9538   6.0000                                                             
     3  2  2.50       -53.1221  10.0000                                                             
     4  0  0.50       -17.2865   2.0000                                                             
     4  1  0.50        -6.5110   4.0000                                                             
     4  2  2.50        -6.8029   0.0000                                                             
     4  3  2.50        -6.8029   0.0000                                                             
   Description                                                                                      
     l       E           TYP  RCUT    TYP  RCUT                                                     
     0    -17.2865377     23  2.100                                                                 
     0    -15.3094411     23  2.100                                                                 
     1     -6.5110275     23  2.100                                                                 
     1     -0.0695192     23  2.100                                                                 
     2     -6.8029130     23  2.100                                                                 
     3     -1.3605826      7  2.100                                                                 
  local pseudopotential read in
  partial core-charges read in
  partial kinetic energy density read in
  atomic valenz-charges read in
  non local Contribution for L=            0  read in
    real space projection operators read in
  non local Contribution for L=            0  read in
    real space projection operators read in
  non local Contribution for L=            1  read in
    real space projection operators read in
  non local Contribution for L=            1  read in
    real space projection operators read in
  non local Contribution for L=            2  read in
    real space projection operators read in
    PAW grid and wavefunctions read in
 
   number of l-projection  operators is LMAX  =            5
   number of lm-projection operators is LMMAX =           13
 
 Optimization of the real space projectors (new method)

 maximal supplied QI-value         = 12.09
 optimisation between [QCUT,QGAM] = [ 11.61, 23.34] = [ 37.75,152.57] Ry 
 Optimized for a Real-space Cutoff    1.89 Angstroem

   l    n(q)    QCUT    max X(q) W(low)/X(q) W(high)/X(q)  e(spline) 
   0     13    11.610    37.655    0.45E-04    0.19E-04    0.34E-06
   0     13    11.610    17.791    0.29E-04    0.15E-04    0.27E-06
   1     13    11.610    36.143    0.15E-04    0.51E-06    0.99E-06
   1     13    11.610    36.445    0.16E-04    0.54E-06    0.10E-05
   2     12    11.610    14.662    0.21E-03    0.42E-03    0.57E-05
   2     12    11.610    15.811    0.17E-03    0.35E-03    0.47E-05
 Optimization of the real space projectors (new method)

 maximal supplied QI-value         = 13.42
 optimisation between [QCUT,QGAM] = [ 11.67, 23.35] = [ 38.16,152.62] Ry 
 Optimized for a Real-space Cutoff    1.63 Angstroem

   l    n(q)    QCUT    max X(q) W(low)/X(q) W(high)/X(q)  e(spline) 
   0     11    11.673    10.501    0.14E-04    0.17E-05    0.21E-07
   0     11    11.673     9.148    0.21E-04    0.32E-05    0.45E-07
   1     11    11.673     4.035    0.33E-05    0.11E-04    0.84E-07
   1     11    11.673     4.388    0.11E-04    0.47E-04    0.34E-06
   2     10    11.673    20.656    0.12E-04    0.28E-04    0.54E-06
   2     10    11.673    12.651    0.11E-04    0.26E-04    0.51E-06
   3     10    11.673    61.921    0.19E-03    0.22E-03    0.23E-06
   3     10    11.673    48.328    0.20E-03    0.23E-03    0.23E-06
 Optimization of the real space projectors (new method)

 maximal supplied QI-value         = 17.95
 optimisation between [QCUT,QGAM] = [ 11.67, 23.34] = [ 38.13,152.52] Ry 
 Optimized for a Real-space Cutoff    1.25 Angstroem

   l    n(q)    QCUT    max X(q) W(low)/X(q) W(high)/X(q)  e(spline) 
   0      9    11.669   133.320    0.17E-03    0.44E-04    0.69E-07
   0      9    11.669   111.601    0.18E-03    0.46E-04    0.72E-07
   1      8    11.669    47.222    0.22E-03    0.37E-03    0.10E-06
   1      8    11.669    33.775    0.22E-03    0.36E-03    0.10E-06
   2      8    11.669     3.720    0.19E-03    0.46E-04    0.50E-07
  PAW_PBE Yb_2 06Sep2000                :
 energy of atom  1       EATOM= -572.3552
 kinetic energy error for atom=    0.0001 (will be added to EATOM!!)
  PAW_PBE Gd 23Dec2003                  :
 energy of atom  2       EATOM=-3047.6032
 kinetic energy error for atom=    0.0019 (will be added to EATOM!!)
  PAW_PBE Se 06Sep2000                  :
 energy of atom  3       EATOM= -257.1286
 kinetic energy error for atom=    0.0007 (will be added to EATOM!!)
 
 
 POSCAR: Yb11 Gd4 Se22
  positions in direct lattice
  No initial velocities read in
 exchange correlation table for  LEXCH =        8
   RHO(1)=    0.500       N(1)  =     2000
   RHO(2)=  100.500       N(2)  =     4000

 VTST: version 4.2, (08/11/21)

 CHAIN: initializing optimizer
 
 OPT: Using VASP Dynamics algorithm
 CHAIN: Read ICHAIN             0
 
 POSCAR: Yb11 Gd4 Se22
  positions in direct lattice
  No initial velocities read in
 


--------------------------------------------------------------------------------------------------------


 ion  position               nearest neighbor table
   1  0.199  0.482  0.397-  33 2.88  36 2.95  36 2.95  37 3.02  30 3.09  30 3.09
   2  0.801  0.518  0.603-  32 2.88  37 2.95  37 2.95  36 3.02  31 3.09  31 3.09
   3  0.541  0.200  0.082-  34 2.85  34 2.85  22 2.89  16 2.98  16 2.98  28 3.38  14 3.75
   4  0.459  0.800  0.918-  35 2.85  35 2.85  23 2.89  17 2.98  17 2.98  29 3.38  15 3.75
   5  0.337  0.170  0.674-  20 2.73  32 2.80  32 2.80  24 3.07  24 3.07
   6  0.663  0.830  0.326-  21 2.73  33 2.80  33 2.80  25 3.07  25 3.07
   7  0.733  0.139  0.465-  20 2.82  20 2.82  21 2.86  36 2.95  18 3.10  18 3.10
   8  0.267  0.861  0.535-  21 2.82  21 2.82  20 2.86  37 2.95  19 3.10  19 3.10
   9  0.938  0.171  0.877-  34 2.78  23 2.83  23 2.83  26 3.12  26 3.12
  10  0.062  0.829  0.123-  35 2.78  22 2.83  22 2.83  27 3.12  27 3.12
  11  0.000  0.500  0.000-  34 2.83  35 2.83  28 3.04  29 3.04  29 3.04  28 3.04
  12  0.108  0.498  0.217-  33 2.89  30 2.92  30 2.92  16 2.92  27 3.05  27 3.05
  13  0.892  0.502  0.783-  32 2.89  31 2.92  31 2.92  17 2.92  26 3.05  26 3.05
  14  0.627  0.168  0.254-  16 2.89  16 2.89  30 2.95  25 2.98  25 2.98  22 3.06  18 3.11  18 3.11
                             3 3.75
  15  0.373  0.832  0.746-  17 2.89  17 2.89  31 2.95  24 2.98  24 2.98  23 3.06  19 3.11  19 3.11
                             4 3.75
  16  0.089  0.254  0.178-  14 2.89  14 2.89  12 2.92   3 2.98   3 2.98
  17  0.911  0.746  0.822-  15 2.89  15 2.89  13 2.92   4 2.98   4 2.98
  18  0.181  0.166  0.361-  25 2.44   7 3.10   7 3.10  14 3.11  14 3.11
  19  0.819  0.834  0.639-  24 2.44   8 3.10   8 3.10  15 3.11  15 3.11
  20  0.275  0.106  0.550-   5 2.73   7 2.82   7 2.82   8 2.86
  21  0.725  0.894  0.450-   6 2.73   8 2.82   8 2.82   7 2.86
  22  0.572  0.989  0.143-  10 2.83  10 2.83   3 2.89  14 3.06
  23  0.428  0.011  0.857-   9 2.83   9 2.83   4 2.89  15 3.06
  24  0.857  0.999  0.715-  19 2.44  15 2.98  15 2.98   5 3.07   5 3.07
  25  0.143  0.001  0.285-  18 2.44  14 2.98  14 2.98   6 3.07   6 3.07
  26  0.414  0.339  0.828-  29 2.43  13 3.05  13 3.05   9 3.12   9 3.12
  27  0.586  0.661  0.172-  28 2.43  12 3.05  12 3.05  10 3.12  10 3.12
  28  0.551  0.489  0.101-  27 2.43  11 3.04  11 3.04   3 3.38
  29  0.449  0.511  0.899-  26 2.43  11 3.04  11 3.04   4 3.38
  30  0.648  0.414  0.295-  12 2.92  12 2.92  14 2.95   1 3.09   1 3.09
  31  0.352  0.586  0.705-  13 2.92  13 2.92  15 2.95   2 3.09   2 3.09
  32  0.840  0.328  0.681-   5 2.80   5 2.80   2 2.88  13 2.89
  33  0.160  0.672  0.319-   6 2.80   6 2.80   1 2.88  12 2.89
  34  0.000  0.259  0.001-   9 2.78  11 2.83   3 2.85   3 2.85
  35  1.000  0.741  0.999-  10 2.78  11 2.83   4 2.85   4 2.85
  36  0.738  0.391  0.475-   1 2.95   1 2.95   7 2.95   2 3.02
  37  0.262  0.609  0.525-   2 2.95   2 2.95   8 2.95   1 3.02
 
  LATTYP: Found a base centered monoclinic cell.
 ALAT       =    42.9902860000
 B/A-ratio  =     0.0976775079
 C/A-ratio  =     0.2729749367
 COS(beta)  =    -0.0761195912
  
  Lattice vectors:
  
 A1 = ( -21.4951430000,  -2.0995920000,   0.0000000000)
 A2 = ( -21.4951430000,   2.0995920000,   0.0000000000)
 A3 = (   0.8932840000,   0.0000000000, -11.7012230000)


Analysis of symmetry for initial positions (statically):
=====================================================================
 Subroutine PRICEL returns:
 Original cell was already a primitive cell.
 

 Routine SETGRP: Setting up the symmetry group for a 
 base centered monoclinic supercell.


 Subroutine GETGRP returns: Found  4 space group operations
 (whereof  4 operations were pure point group operations)
 out of a pool of  4 trial point group operations.


The static configuration has the point symmetry C_2h.


Analysis of symmetry for dynamics (positions and initial velocities):
=====================================================================
 Subroutine PRICEL returns:
 Original cell was already a primitive cell.
 

 Routine SETGRP: Setting up the symmetry group for a 
 base centered monoclinic supercell.


 Subroutine GETGRP returns: Found  4 space group operations
 (whereof  4 operations were pure point group operations)
 out of a pool of  4 trial point group operations.


The dynamic configuration has the point symmetry C_2h.


Analysis of structural, dynamic, and magnetic symmetry:
=====================================================================
 Subroutine PRICEL returns:
 Original cell was already a primitive cell.
 

 Routine SETGRP: Setting up the symmetry group for a 
 base centered monoclinic supercell.


 Subroutine GETGRP returns: Found  4 space group operations
 (whereof  4 operations were pure point group operations)
 out of a pool of  4 trial point group operations.


The overall configuration has the point symmetry C_2h.


 Subroutine INISYM returns: Found  4 space group operations
 (whereof  4 operations are pure point group operations),
 and found     1 'primitive' translations


----------------------------------------------------------------------------------------

                                     Primitive cell                                     

  volume of cell :    1056.1765

  direct lattice vectors                    reciprocal lattice vectors
     0.000000000  4.199184000  0.000000000    -0.023261069  0.238141506 -0.001775775
     0.893284000  0.000000000-11.701223000    -0.000000000  0.000000000 -0.085461152
   -21.495143000 -2.099592000  0.000000000    -0.046522138  0.000000000 -0.003551550

  length of vectors
     4.199184000 11.735270598 21.597441033     0.239281440  0.085461152  0.046657505

  position of ions in fractional coordinates (direct lattice)
     0.198537000  0.482414000  0.397075000
     0.801463000  0.517586000  0.602925000
     0.541038000  0.200386000  0.082076000
     0.458962000  0.799614000  0.917924000
     0.337210000  0.170022000  0.674421000
     0.662790000  0.829978000  0.325579000
     0.732562000  0.138696000  0.465124000
     0.267438000  0.861304000  0.534876000
     0.938478000  0.170572000  0.876955000
     0.061522000  0.829428000  0.123045000
     0.000000000  0.500000000  0.000000000
     0.108328000  0.497707000  0.216655000
     0.891672000  0.502293000  0.783345000
     0.627211000  0.168039000  0.254422000
     0.372789000  0.831961000  0.745578000
     0.089047000  0.253751000  0.178095000
     0.910953000  0.746249000  0.821905000
     0.180598000  0.166027000  0.361196000
     0.819402000  0.833973000  0.638804000
     0.274819000  0.105759000  0.549638000
     0.725181000  0.894241000  0.450362000
     0.571599000  0.989169000  0.143197000
     0.428401000  0.010831000  0.856803000
     0.857377000  0.999181000  0.714754000
     0.142623000  0.000819000  0.285246000
     0.414075000  0.339108000  0.828150000
     0.585925000  0.660892000  0.171850000
     0.550659000  0.488535000  0.101319000
     0.449341000  0.511465000  0.898681000
     0.647730000  0.413667000  0.295461000
     0.352270000  0.586333000  0.704539000
     0.840395000  0.327989000  0.680791000
     0.159605000  0.672011000  0.319209000
     0.000315000  0.258619000  0.000630000
     0.999685000  0.741381000  0.999370000
     0.737706000  0.390767000  0.475412000
     0.262294000  0.609233000  0.524588000

  ion indices of the primitive-cell ions
   primitive index   ion index
                 1           1
                 2           2
                 3           3
                 4           4
                 5           5
                 6           6
                 7           7
                 8           8
                 9           9
                10          10
                11          11
                12          12
                13          13
                14          14
                15          15
                16          16
                17          17
                18          18
                19          19
                20          20
                21          21
                22          22
                23          23
                24          24
                25          25
                26          26
                27          27
                28          28
                29          29
                30          30
                31          31
                32          32
                33          33
                34          34
                35          35
                36          36
                37          37

----------------------------------------------------------------------------------------

 
 
 KPOINTS: Kpoints from vasprun.xml                

Automatic generation of k-mesh.
 Grid dimensions read from file:
 generate k-points for:    2    2    2

 Generating k-lattice:

  Cartesian coordinates                     Fractional coordinates (reciprocal lattice)
    -0.011630534  0.119070753 -0.000887888     0.500000000  0.000000000 -0.000000000
    -0.000000000  0.000000000 -0.042730576     0.000000000  0.500000000  0.000000000
    -0.023261069  0.000000000 -0.001775775     0.000000000  0.000000000  0.500000000

  Length of vectors
     0.119640720  0.042730576  0.023328753

  Shift w.r.t. Gamma in fractional coordinates (k-lattice)
     0.000000000  0.000000000  0.000000000

 TETIRR: Found     22 inequivalent tetrahedra from       48
 
 Subroutine IBZKPT returns following result:
 ===========================================
 
 Found      6 irreducible k-points:
 
 Following reciprocal coordinates:
            Coordinates               Weight
  0.000000  0.000000  0.000000      1.000000
  0.500000  0.000000  0.000000      2.000000
  0.000000  0.500000  0.000000      1.000000
  0.500000  0.500000  0.000000      2.000000
  0.000000  0.000000  0.500000      1.000000
  0.000000  0.500000  0.500000      1.000000
 
 Following cartesian coordinates:
            Coordinates               Weight
 -0.000000  0.000000 -0.000000      1.000000
 -0.011631  0.119071 -0.000888      2.000000
 -0.000000  0.000000 -0.042731      1.000000
 -0.011631  0.119071 -0.043618      2.000000
 -0.023261  0.000000 -0.001776      1.000000
 -0.023261  0.000000 -0.044506      1.000000
 


--------------------------------------------------------------------------------------------------------




 Dimension of arrays:
   k-points           NKPTS =      6   k-points in BZ     NKDIM =      6   number of bands    NBANDS=    199
   number of dos      NEDOS =    301   number of ions     NIONS =     37
   non local maximal  LDIM  =      8   non local SUM 2l+1 LMDIM =     32
   total plane-waves  NPLWV = 466560
   max r-space proj   IRMAX =  12471   max aug-charges    IRDMAX=  35038
   dimension x,y,z NGX =    32 NGY =   90 NGZ =  162
   dimension x,y,z NGXF=    64 NGYF=  180 NGZF=  324
   support grid    NGXF=    64 NGYF=  180 NGZF=  324
   ions per type =              11   4  22
   NGX,Y,Z   is equivalent  to a cutoff of  12.67, 12.75, 12.47 a.u.
   NGXF,Y,Z  is equivalent  to a cutoff of  25.34, 25.50, 24.94 a.u.

 SYSTEM =  unknown system                          
 POSCAR =  Yb11 Gd4 Se22                           

 Startparameter for this run:
   NWRITE =      2    write-flag & timer
   PREC   = accura    normal or accurate (medium, high low for compatibility)
   ISTART =      0    job   : 0-new  1-cont  2-samecut
   ICHARG =      2    charge: 1-file 2-atom 10-const
   ISPIN  =      2    spin polarized calculation?
   LNONCOLLINEAR =      F non collinear calculations
   LSORBIT =      F    spin-orbit coupling
   INIWAV =      1    electr: 0-lowe 1-rand  2-diag
   LASPH  =      T    aspherical Exc in radial PAW
 Electronic Relaxation 1
   ENCUT  =  520.0 eV  38.22 Ry    6.18 a.u.   7.81 21.82 40.16*2*pi/ulx,y,z
   ENINI  =  520.0     initial cutoff
   ENAUG  =  537.2 eV  augmentation charge cutoff
   NELM   =   1000;   NELMIN=  2; NELMDL= -5     # of ELM steps 
   EDIFF  = 0.2E-02   stopping-criterion for ELM
   LREAL  =      T    real-space projection
   NLSPLINE    = F    spline interpolate recip. space projectors
   LCOMPAT=      F    compatible to vasp.4.4
   GGA_COMPAT  = T    GGA compatible to vasp.4.4-vasp.4.6
   LMAXPAW     = -100 max onsite density
   LMAXMIX     =    2 max onsite mixed and CHGCAR
   VOSKOWN=      0    Vosko Wilk Nusair interpolation
   ROPT   =   -0.00025  -0.00025  -0.00025
 Ionic relaxation
   EDIFFG = 0.2E-01   stopping-criterion for IOM
   NSW    =      0    number of steps for IOM
   NBLOCK =      1;   KBLOCK =      1    inner block; outer block 
   IBRION =     -1    ionic relax: 0-MD 1-quasi-New 2-CG
   NFREE  =      0    steps in history (QN), initial steepest desc. (CG)
   ISIF   =      3    stress and relaxation
   IWAVPR =     10    prediction:  0-non 1-charg 2-wave 3-comb
   ISYM   =      2    0-nonsym 1-usesym 2-fastsym
   LCORR  =      T    Harris-Foulkes like correction to forces

   POTIM  = 0.5000    time-step for ionic-motion
   TEIN   =    0.0    initial temperature
   TEBEG  =    0.0;   TEEND  =   0.0 temperature during run
   SMASS  =  -3.00    Nose mass-parameter (am)
   estimated Nose-frequenzy (Omega)   =  0.10E-29 period in steps = 0.13E+47 mass=  -0.403E-27a.u.
   SCALEE = 1.0000    scale energy and forces
   NPACO  =    256;   APACO  = 10.0  distance and # of slots for P.C.
   PSTRESS=    0.0 pullay stress

  Mass of Ions in am
   POMASS = 173.04157.25 78.96
  Ionic Valenz
   ZVAL   =   8.00 18.00  6.00
  Atomic Wigner-Seitz radii
   RWIGS  =  -1.00 -1.00 -1.00
  virtual crystal weights 
   VCA    =   1.00  1.00  1.00
   NELECT =     292.0000    total number of electrons
   NUPDOWN=      -1.0000    fix difference up-down

 DOS related values:
   EMIN   =  10.00;   EMAX   =-10.00  energy-range for DOS
   EFERMI =   0.00
   ISMEAR =    -5;   SIGMA  =   0.05  broadening in eV -4-tet -1-fermi 0-gaus

 Electronic relaxation 2 (details)
   IALGO  =     58    algorithm
   LDIAG  =      T    sub-space diagonalisation (order eigenvalues)
   LSUBROT=      F    optimize rotation matrix (better conditioning)
   TURBO    =      0    0=normal 1=particle mesh
   IRESTART =      0    0=no restart 2=restart with 2 vectors
   NREBOOT  =      0    no. of reboots
   NMIN     =      0    reboot dimension
   EREF     =   0.00    reference energy to select bands
   IMIX   =      4    mixing-type and parameters
     AMIX     =   0.40;   BMIX     =  1.00
     AMIX_MAG =   1.60;   BMIX_MAG =  1.00
     AMIN     =   0.10
     WC   =   100.;   INIMIX=   1;  MIXPRE=   1;  MAXMIX= -45

 Intra band minimization:
   WEIMIN = 0.0000     energy-eigenvalue tresh-hold
   EBREAK =  0.23E-05  absolut break condition
   DEPER  =   0.30     relativ break condition  

   TIME   =   0.40     timestep for ELM

  volume/ion in A,a.u.               =      28.55       192.63
  Fermi-wavevector in a.u.,A,eV,Ry     =   1.066490  2.015375 15.475290  1.137402
  Thomas-Fermi vector in A             =   2.202076
 
 Write flags
   LWAVE        =      F    write WAVECAR
   LDOWNSAMPLE  =      F    k-point downsampling of WAVECAR
   LCHARG       =      T    write CHGCAR
   LVTOT        =      F    write LOCPOT, total local potential
   LVHAR        =      T    write LOCPOT, Hartree potential only
   LELF         =      F    write electronic localiz. function (ELF)
   LORBIT       =     11    0 simple, 1 ext, 2 COOP (PROOUT), +10 PAW based schemes


 Dipole corrections
   LMONO  =      F    monopole corrections only (constant potential shift)
   LDIPOL =      F    correct potential (dipole corrections)
   IDIPOL =      0    1-x, 2-y, 3-z, 4-all directions 
   EPSILON=  1.0000000 bulk dielectric constant

 Exchange correlation treatment:
   GGA     =    --    GGA type
   LEXCH   =     8    internal setting for exchange type
   LIBXC   =     F    Libxc                    
   VOSKOWN =     0    Vosko Wilk Nusair interpolation
   LHFCALC =     F    Hartree Fock is set to
   LHFONE  =     F    Hartree Fock one center treatment
   AEXX    =    0.0000 exact exchange contribution

 Linear response parameters
   LEPSILON=     F    determine dielectric tensor
   LRPA    =     F    only Hartree local field effects (RPA)
   LNABLA  =     F    use nabla operator in PAW spheres
   LVEL    =     F    velocity operator in full k-point grid
   CSHIFT  =0.1000    complex shift for real part using Kramers Kronig
   OMEGAMAX=  -1.0    maximum frequency
   DEG_THRESHOLD= 0.2000000E-02 threshold for treating states as degnerate
   RTIME   =   -0.100 relaxation time in fs
  (WPLASMAI=    0.000 imaginary part of plasma frequency in eV, 0.658/RTIME)
   DFIELD  = 0.0000000 0.0000000 0.0000000 field for delta impulse in time
 
  Optional k-point grid parameters
   LKPOINTS_OPT  =     F    use optional k-point grid
   KPOINTS_OPT_MODE=     1    mode for optional k-point grid
 
 Orbital magnetization related:
   ORBITALMAG=     F  switch on orbital magnetization
   LCHIMAG   =     F  perturbation theory with respect to B field
   DQ        =  0.001000  dq finite difference perturbation B field
   LLRAUG    =     F  two centre corrections for induced B field



--------------------------------------------------------------------------------------------------------


 Static calculation
 charge density and potential will be updated during run
 spin polarized calculation
 Conjugate gradient for all bands (Freysoldt, et al. PRB 79, 241103 (2009))
 preconditioned conjugated gradient                                        
 perform sub-space diagonalisation
    before iterative eigenvector-optimisation
 modified Broyden-mixing scheme, WC =      100.0
 initial mixing is a Kerker type mixing with AMIX =  0.4000 and BMIX =      1.0000
 Hartree-type preconditioning will be used
 using additional bands            53
 real space projection scheme for non local part
 use partial core corrections
 no Harris-corrections to forces 
 use gradient corrections 
 use of overlap-Matrix (Vanderbilt PP)
 Fermi weights with tetrahedron method with Bloechl corrections


--------------------------------------------------------------------------------------------------------


  energy-cutoff  :      520.00
  volume of cell :     1056.18
      direct lattice vectors                 reciprocal lattice vectors
     0.000000000  4.199184000  0.000000000    -0.023261069  0.238141506 -0.001775775
     0.893284000  0.000000000-11.701223000    -0.000000000  0.000000000 -0.085461152
   -21.495143000 -2.099592000  0.000000000    -0.046522138  0.000000000 -0.003551550

  length of vectors
     4.199184000 11.735270598 21.597441033     0.239281440  0.085461152  0.046657505


 
 k-points in units of 2pi/SCALE and weight: Kpoints from vasprun.xml                
  -0.00000000  0.00000000 -0.00000000       0.125
  -0.01163053  0.11907075 -0.00088789       0.250
  -0.00000000  0.00000000 -0.04273058       0.125
  -0.01163053  0.11907075 -0.04361846       0.250
  -0.02326107  0.00000000 -0.00177578       0.125
  -0.02326107  0.00000000 -0.04450635       0.125
 
 k-points in reciprocal lattice and weights: Kpoints from vasprun.xml                
   0.00000000  0.00000000  0.00000000       0.125
   0.50000000  0.00000000  0.00000000       0.250
   0.00000000  0.50000000  0.00000000       0.125
   0.50000000  0.50000000  0.00000000       0.250
   0.00000000  0.00000000  0.50000000       0.125
   0.00000000  0.50000000  0.50000000       0.125
 
 position of ions in fractional coordinates (direct lattice) 
   0.19853700  0.48241400  0.39707500
   0.80146300  0.51758600  0.60292500
   0.54103800  0.20038600  0.08207600
   0.45896200  0.79961400  0.91792400
   0.33721000  0.17002200  0.67442100
   0.66279000  0.82997800  0.32557900
   0.73256200  0.13869600  0.46512400
   0.26743800  0.86130400  0.53487600
   0.93847800  0.17057200  0.87695500
   0.06152200  0.82942800  0.12304500
   0.00000000  0.50000000  0.00000000
   0.10832800  0.49770700  0.21665500
   0.89167200  0.50229300  0.78334500
   0.62721100  0.16803900  0.25442200
   0.37278900  0.83196100  0.74557800
   0.08904700  0.25375100  0.17809500
   0.91095300  0.74624900  0.82190500
   0.18059800  0.16602700  0.36119600
   0.81940200  0.83397300  0.63880400
   0.27481900  0.10575900  0.54963800
   0.72518100  0.89424100  0.45036200
   0.57159900  0.98916900  0.14319700
   0.42840100  0.01083100  0.85680300
   0.85737700  0.99918100  0.71475400
   0.14262300  0.00081900  0.28524600
   0.41407500  0.33910800  0.82815000
   0.58592500  0.66089200  0.17185000
   0.55065900  0.48853500  0.10131900
   0.44934100  0.51146500  0.89868100
   0.64773000  0.41366700  0.29546100
   0.35227000  0.58633300  0.70453900
   0.84039500  0.32798900  0.68079100
   0.15960500  0.67201100  0.31920900
   0.00031500  0.25861900  0.00063000
   0.99968500  0.74138100  0.99937000
   0.73770600  0.39076700  0.47541200
   0.26229400  0.60923300  0.52458800
 
 position of ions in cartesian coordinates  (Angst):
  -8.10425120 -0.00000210 -5.64483379
 -12.49760780  2.09959410 -6.05638921
  -1.58523375  2.09959200 -2.34476127
 -19.01662525 -0.00000000 -9.35646173
 -14.34489790 -0.00000210 -1.98946534
  -6.25696110  2.09959410 -9.71175766
  -9.87401198  2.09959200 -1.62291283
 -10.72784702 -0.00000000-10.07831017
 -18.69790389  2.09959410 -1.99590101
  -1.90395511 -0.00000210 -9.70532199
   0.44664200  0.00000000 -5.85061150
  -4.21243651  0.00000210 -5.82378060
 -16.38942249  2.09958990 -5.87744240
  -5.31873072  2.09959200 -1.96626181
 -15.28312828 -0.00000000 -9.73496119
  -3.60150578 -0.00000210 -2.96919704
 -17.00035322  2.09959410 -8.73202596
  -7.61565041  0.00000000 -1.94271895
 -12.98620859  2.09959200 -9.75850405
 -11.72007459  0.00000000 -1.23750964
  -8.88178441  2.09959200-10.46371336
  -2.19443115  2.09959410-11.57448705
 -18.40742785 -0.00000210 -0.12673595
 -14.47118704  2.09959200-11.69163970
  -6.13067196 -0.00000000 -0.00958330
 -17.49828292 -0.00000000 -3.96797833
  -3.10357608  2.09959200 -7.73324467
  -1.74146589  2.09958990 -5.71645698
 -18.86039311  0.00000210 -5.98476602
  -5.98145433  2.09958990 -4.84040981
 -14.62040467  0.00000210 -6.86081319
 -14.34071257  2.09958990 -3.83787243
  -6.26114643  0.00000210 -7.86335057
   0.21747827 -0.00000000 -3.02615859
 -20.81933727  2.09959200 -8.67506441
  -9.86998302  2.09959200 -4.57245181
 -10.73187598 -0.00000000 -7.12877119
 


--------------------------------------------------------------------------------------------------------


 k-point   1 :   0.0000 0.0000 0.0000  plane waves:   28457
 k-point   2 :   0.5000 0.0000 0.0000  plane waves:   28470
 k-point   3 :   0.0000 0.5000 0.0000  plane waves:   28470
 k-point   4 :   0.5000 0.5000 0.0000  plane waves:   28456
 k-point   5 :   0.0000 0.0000 0.5000  plane waves:   28412
 k-point   6 :   0.0000 0.5000 0.5000  plane waves:   28460

 maximum and minimum number of plane-waves per node :     28470    28412

 maximum number of plane-waves:     28470
 maximum index in each direction: 
   IXMAX=    7   IYMAX=   21   IZMAX=   40
   IXMIN=   -8   IYMIN=  -22   IZMIN=  -40


 serial   3D FFT for wavefunctions
 parallel 3D FFT for charge:
    minimum data exchange during FFTs selected (reduces bandwidth)


 total amount of memory used by VASP MPI-rank0  3908740. kBytes
=======================================================================

   base      :      30000. kBytes
   nonlr-proj:      46342. kBytes
   fftplans  :     127732. kBytes
   grid      :     367534. kBytes
   one-center:       3637. kBytes
   wavefun   :    3333495. kBytes
 
     INWAV:  cpu time      0.0002: real time      0.0009
 Broyden mixing: mesh for mixing (old mesh)
   NGX = 15   NGY = 43   NGZ = 81
  (NGX  = 64   NGY  =180   NGZ  =324)
  gives a total of  52245 points

 initial charge density was supplied:
 charge density of overlapping atoms calculated
 number of electron     292.0000000 magnetization      47.8000000
 keeping initial charge density in first step


--------------------------------------------------------------------------------------------------------


 Maximum index for non-local projection operator         12067
 BZINTS: Fermi energy:   20.923649;  292.000000 electrons
         Band energy: 0.268612E+04;  BLOECHL correction: -830.853354
 Maximum index for augmentation-charges         33824 (set IRDMAX)


--------------------------------------------------------------------------------------------------------


 First call to EWALD:  gamma=   0.174
 Maximum number of real-space cells 6x 2x 2
 Maximum number of reciprocal cells 1x 3x 5

    FEWALD:  cpu time      0.0087: real time      0.0087
 -----------------------------------------------------------------------------
|                                                                             |
|           W    W    AA    RRRRR   N    N  II  N    N   GGGG   !!!           |
|           W    W   A  A   R    R  NN   N  II  NN   N  G    G  !!!           |
|           W    W  A    A  R    R  N N  N  II  N N  N  G       !!!           |
|           W WW W  AAAAAA  RRRRR   N  N N  II  N  N N  G  GGG   !            |
|           WW  WW  A    A  R   R   N   NN  II  N   NN  G    G                |
|           W    W  A    A  R    R  N    N  II  N    N   GGGG   !!!           |
|                                                                             |
|     ALGO=A and IALGO=5X tend to fail with the tetrahedron method (e.g.      |
|     Bloechl's method, ISMEAR=-5, is not variational). Please switch to      |
|     IMSEAR=0-n, except for DOS calculations. For DOS calculations use       |
|     IALGO=53 after pre-converging with ISMEAR>=0.                           |
|     I HOPE YOU KNOW WHAT YOU ARE DOING!                                     |
|                                                                             |
 -----------------------------------------------------------------------------



--------------------------------------- Iteration      1(   1)  ---------------------------------------


    POTLOK:  cpu time      0.0654: real time      0.0654
    SETDIJ:  cpu time      5.4795: real time      5.4815
 BZINTS: Fermi energy:   21.365780;  292.000000 electrons
         Band energy: 0.742483E+03;  BLOECHL correction:   -0.771791
    TRIAL :  cpu time      1.8669: real time      1.8757
 BZINTS: Fermi energy:   21.365780;  292.000000 electrons
         Band energy: 0.742483E+03;  BLOECHL correction:   -0.771791
    CORREC:  cpu time      0.0404: real time      0.0404
    --------------------------------------------
      LOOP:  cpu time      8.2190: real time      8.2300

 eigenvalue-minimisations  :  6912
 total energy-change (2. order) : 0.3266981E+04  (-0.1059110E+05)
 number of electron     292.0000000 magnetization      47.8000000
 augmentation part      292.0000000 magnetization      47.8000000

 Free energy of the ion-electron system (eV)
  ---------------------------------------------------
  alpha Z        PSCENC =      1199.08378299
  Ewald energy   TEWEN  =    -15082.34218532
  -Hartree energ DENC   =     -7890.09808782
  -exchange      EXHF   =         0.00000000
  -V(xc)+E(xc)   XCENC  =       260.50101790
  PAW double counting   =     19456.84338204   -19562.61485716
  entropy T*S    EENTRO =         0.00000000
  eigenvalues    EBANDS =       742.48322809
  atomic energy  EATOM  =     24143.12430131
  ---------------------------------------------------
  free energy    TOTEN  =      3266.98058203 eV

  energy without entropy =     3266.98058203  energy(sigma->0) =     3266.98058203


--------------------------------------------------------------------------------------------------------




--------------------------------------- Iteration      1(   2)  ---------------------------------------


 BZINTS: Fermi energy:    8.280940;  292.000000 electrons
         Band energy:-0.174682E+04;  BLOECHL correction:   -0.331251
    TRIAL :  cpu time      1.3904: real time      1.3913
 BZINTS: Fermi energy:    8.280940;  292.000000 electrons
         Band energy:-0.174682E+04;  BLOECHL correction:   -0.331251
    CORREC:  cpu time      0.0362: real time      0.0362
    --------------------------------------------
      LOOP:  cpu time      1.4268: real time      1.4283

 eigenvalue-minimisations  :  5504
 total energy-change (2. order) :-0.2489299E+04  (-0.2186192E+04)
 number of electron     292.0000000 magnetization      47.8000000
 augmentation part      292.0000000 magnetization      47.8000000

 Free energy of the ion-electron system (eV)
  ---------------------------------------------------
  alpha Z        PSCENC =      1199.08378299
  Ewald energy   TEWEN  =    -15082.34218532
  -Hartree energ DENC   =     -7890.09808782
  -exchange      EXHF   =         0.00000000
  -V(xc)+E(xc)   XCENC  =       260.50101790
  PAW double counting   =     19456.84338204   -19562.61485716
  entropy T*S    EENTRO =         0.00000000
  eigenvalues    EBANDS =     -1746.81580651
  atomic energy  EATOM  =     24143.12430131
  ---------------------------------------------------
  free energy    TOTEN  =       777.68154742 eV

  energy without entropy =      777.68154742  energy(sigma->0) =      777.68154742


--------------------------------------------------------------------------------------------------------




--------------------------------------- Iteration      1(   3)  ---------------------------------------


 BZINTS: Fermi energy:    1.657969;  292.000000 electrons
         Band energy:-0.257037E+04;  BLOECHL correction:   -0.677519
    TRIAL :  cpu time      1.3670: real time      1.3677
 BZINTS: Fermi energy:    1.657969;  292.000000 electrons
         Band energy:-0.257037E+04;  BLOECHL correction:   -0.677519
    CORREC:  cpu time      0.0388: real time      0.0388
    --------------------------------------------
      LOOP:  cpu time      1.4060: real time      1.4071

 eigenvalue-minimisations  :  5504
 total energy-change (2. order) :-0.8235544E+03  (-0.7655272E+03)
 number of electron     292.0000000 magnetization      47.8000000
 augmentation part      292.0000000 magnetization      47.8000000

 Free energy of the ion-electron system (eV)
  ---------------------------------------------------
  alpha Z        PSCENC =      1199.08378299
  Ewald energy   TEWEN  =    -15082.34218532
  -Hartree energ DENC   =     -7890.09808782
  -exchange      EXHF   =         0.00000000
  -V(xc)+E(xc)   XCENC  =       260.50101790
  PAW double counting   =     19456.84338204   -19562.61485716
  entropy T*S    EENTRO =         0.00000000
  eigenvalues    EBANDS =     -2570.37022523
  atomic energy  EATOM  =     24143.12430131
  ---------------------------------------------------
  free energy    TOTEN  =       -45.87287129 eV

  energy without entropy =      -45.87287129  energy(sigma->0) =      -45.87287129


--------------------------------------------------------------------------------------------------------




--------------------------------------- Iteration      1(   4)  ---------------------------------------


 BZINTS: Fermi energy:    0.954953;  292.000000 electrons
         Band energy:-0.271061E+04;  BLOECHL correction:   -0.111581
    TRIAL :  cpu time      1.4306: real time      1.4315
 BZINTS: Fermi energy:    0.954953;  292.000000 electrons
         Band energy:-0.271061E+04;  BLOECHL correction:   -0.111581
    CORREC:  cpu time      0.0343: real time      0.0343
    --------------------------------------------
      LOOP:  cpu time      1.4650: real time      1.4665

 eigenvalue-minimisations  :  5833
 total energy-change (2. order) :-0.1402348E+03  (-0.1244675E+03)
 number of electron     292.0000000 magnetization      47.8000000
 augmentation part      292.0000000 magnetization      47.8000000

 Free energy of the ion-electron system (eV)
  ---------------------------------------------------
  alpha Z        PSCENC =      1199.08378299
  Ewald energy   TEWEN  =    -15082.34218532
  -Hartree energ DENC   =     -7890.09808782
  -exchange      EXHF   =         0.00000000
  -V(xc)+E(xc)   XCENC  =       260.50101790
  PAW double counting   =     19456.84338204   -19562.61485716
  entropy T*S    EENTRO =         0.00000000
  eigenvalues    EBANDS =     -2710.60504268
  atomic energy  EATOM  =     24143.12430131
  ---------------------------------------------------
  free energy    TOTEN  =      -186.10768874 eV

  energy without entropy =     -186.10768874  energy(sigma->0) =     -186.10768874


--------------------------------------------------------------------------------------------------------




--------------------------------------- Iteration      1(   5)  ---------------------------------------


 BZINTS: Fermi energy:    0.872901;  292.000000 electrons
         Band energy:-0.272243E+04;  BLOECHL correction:   -0.105182
    TRIAL :  cpu time      1.4916: real time      1.4922
 BZINTS: Fermi energy:    0.872901;  292.000000 electrons
         Band energy:-0.272243E+04;  BLOECHL correction:   -0.105182
    CORREC:  cpu time      0.0350: real time      0.0350
    CHARGE:  cpu time      0.3347: real time      0.3352
    --------------------------------------------
      LOOP:  cpu time      1.8619: real time      1.8633

 eigenvalue-minimisations  :  6160
 total energy-change (2. order) :-0.1182477E+02  (-0.1157313E+02)
 number of electron     292.0000010 magnetization      29.5936549
 augmentation part       48.1926553 magnetization      22.1153658

 Free energy of the ion-electron system (eV)
  ---------------------------------------------------
  alpha Z        PSCENC =      1199.08378299
  Ewald energy   TEWEN  =    -15082.34218532
  -Hartree energ DENC   =     -7890.09808782
  -exchange      EXHF   =         0.00000000
  -V(xc)+E(xc)   XCENC  =       260.50101790
  PAW double counting   =     19456.84338204   -19562.61485716
  entropy T*S    EENTRO =         0.00000000
  eigenvalues    EBANDS =     -2722.42981348
  atomic energy  EATOM  =     24143.12430131
  ---------------------------------------------------
  free energy    TOTEN  =      -197.93245955 eV

  energy without entropy =     -197.93245955  energy(sigma->0) =     -197.93245955


--------------------------------------------------------------------------------------------------------




--------------------------------------- Iteration      1(   6)  ---------------------------------------


    POTLOK:  cpu time      0.0404: real time      0.0404
    SETDIJ:  cpu time      5.5133: real time      5.5160
    TRIAL :  cpu time      2.0409: real time      2.0418
 BZINTS: Fermi energy:    1.609849;  292.000000 electrons
         Band energy:-0.254996E+04;  BLOECHL correction:   -0.030097
 BZINTS: Fermi energy:    1.050688;  292.000000 electrons
         Band energy:-0.264296E+04;  BLOECHL correction:   -0.183769
    CORREC:  cpu time      6.3600: real time      6.3625
    CHARGE:  cpu time      0.3182: real time      0.3184
    --------------------------------------------
      LOOP:  cpu time     14.2768: real time     14.2833

 eigenvalue-minimisations  :     0
 total energy-change (2. order) : 0.4645594E+02  (-0.2095173E+03)
 number of electron     292.0000011 magnetization      30.0000005
 augmentation part       43.6026994 magnetization      25.1156510

 Free energy of the ion-electron system (eV)
  ---------------------------------------------------
  alpha Z        PSCENC =      1199.08378299
  Ewald energy   TEWEN  =    -15082.34218532
  -Hartree energ DENC   =     -8763.19469850
  -exchange      EXHF   =         0.00000000
  -V(xc)+E(xc)   XCENC  =       295.28100645
  PAW double counting   =     24094.42113819   -24482.37714326
  entropy T*S    EENTRO =         0.00000000
  eigenvalues    EBANDS =     -1555.47271845
  atomic energy  EATOM  =     24143.12430131
  ---------------------------------------------------
  free energy    TOTEN  =      -151.47651659 eV

  energy without entropy =     -151.47651659  energy(sigma->0) =     -151.47651659


--------------------------------------------------------------------------------------------------------




--------------------------------------- Iteration      1(   7)  ---------------------------------------


    POTLOK:  cpu time      0.0406: real time      0.0407
    SETDIJ:  cpu time      5.4841: real time      5.4862
    TRIAL :  cpu time      2.0414: real time      2.0422
 BZINTS: Fermi energy:    1.273417;  292.000000 electrons
         Band energy:-0.269180E+04;  BLOECHL correction:   -0.083904
 BZINTS: Fermi energy:    1.103673;  292.000000 electrons
         Band energy:-0.265612E+04;  BLOECHL correction:   -0.086569
    CORREC:  cpu time      6.3517: real time      6.3545
    CHARGE:  cpu time      0.3164: real time      0.3165
    --------------------------------------------
      LOOP:  cpu time     14.2361: real time     14.2421

 eigenvalue-minimisations  :     0
 total energy-change (2. order) :-0.3293362E+02  (-0.1182251E+02)
 number of electron     292.0000011 magnetization      30.0000005
 augmentation part       44.6535195 magnetization      25.4319024

 Free energy of the ion-electron system (eV)
  ---------------------------------------------------
  alpha Z        PSCENC =      1199.08378299
  Ewald energy   TEWEN  =    -15082.34218532
  -Hartree energ DENC   =     -7579.33256594
  -exchange      EXHF   =         0.00000000
  -V(xc)+E(xc)   XCENC  =       272.77176659
  PAW double counting   =     23145.54978667   -23229.30529481
  entropy T*S    EENTRO =         0.00000000
  eigenvalues    EBANDS =     -3053.95972905
  atomic energy  EATOM  =     24143.12430131
  ---------------------------------------------------
  free energy    TOTEN  =      -184.41013755 eV

  energy without entropy =     -184.41013755  energy(sigma->0) =     -184.41013755


--------------------------------------------------------------------------------------------------------




--------------------------------------- Iteration      1(   8)  ---------------------------------------


    POTLOK:  cpu time      0.0407: real time      0.0407
    SETDIJ:  cpu time      5.5040: real time      5.5070
    TRIAL :  cpu time      2.0425: real time      2.0434
 BZINTS: Fermi energy:    1.116310;  292.000000 electrons
         Band energy:-0.268034E+04;  BLOECHL correction:   -0.109792
 BZINTS: Fermi energy:    1.092166;  292.000000 electrons
         Band energy:-0.266346E+04;  BLOECHL correction:   -0.107564
    CORREC:  cpu time      6.3068: real time      6.3087
    CHARGE:  cpu time      0.3167: real time      0.3175
    --------------------------------------------
      LOOP:  cpu time     14.2143: real time     14.2210

 eigenvalue-minimisations  :     0
 total energy-change (2. order) :-0.1514258E+02  (-0.2717147E+01)
 number of electron     292.0000011 magnetization      30.0000005
 augmentation part       45.3013878 magnetization      25.4680250

 Free energy of the ion-electron system (eV)
  ---------------------------------------------------
  alpha Z        PSCENC =      1199.08378299
  Ewald energy   TEWEN  =    -15082.34218532
  -Hartree energ DENC   =     -7817.78936868
  -exchange      EXHF   =         0.00000000
  -V(xc)+E(xc)   XCENC  =       278.36588485
  PAW double counting   =     23334.80600961   -23489.38352739
  entropy T*S    EENTRO =         0.00000000
  eigenvalues    EBANDS =     -2765.41761279
  atomic energy  EATOM  =     24143.12430131
  ---------------------------------------------------
  free energy    TOTEN  =      -199.55271542 eV

  energy without entropy =     -199.55271542  energy(sigma->0) =     -199.55271542


--------------------------------------------------------------------------------------------------------




--------------------------------------- Iteration      1(   9)  ---------------------------------------


    POTLOK:  cpu time      0.0403: real time      0.0403
    SETDIJ:  cpu time      5.4843: real time      5.4878
    TRIAL :  cpu time      2.0424: real time      2.0433
 BZINTS: Fermi energy:    1.138424;  292.000000 electrons
         Band energy:-0.265911E+04;  BLOECHL correction:   -0.171367
 BZINTS: Fermi energy:    1.106223;  292.000000 electrons
         Band energy:-0.266135E+04;  BLOECHL correction:   -0.137961
    CORREC:  cpu time      6.3420: real time      6.3454
    CHARGE:  cpu time      0.3153: real time      0.3155
    --------------------------------------------
      LOOP:  cpu time     14.2255: real time     14.2343

 eigenvalue-minimisations  :     0
 total energy-change (2. order) :-0.3451843E+01  (-0.7871002E+00)
 number of electron     292.0000011 magnetization      30.0000005
 augmentation part       45.5633377 magnetization      25.4954965

 Free energy of the ion-electron system (eV)
  ---------------------------------------------------
  alpha Z        PSCENC =      1199.08378299
  Ewald energy   TEWEN  =    -15082.34218532
  -Hartree energ DENC   =     -7950.12663321
  -exchange      EXHF   =         0.00000000
  -V(xc)+E(xc)   XCENC  =       281.24760052
  PAW double counting   =     23491.09666874   -23683.34353781
  entropy T*S    EENTRO =         0.00000000
  eigenvalues    EBANDS =     -2601.74455576
  atomic energy  EATOM  =     24143.12430131
  ---------------------------------------------------
  free energy    TOTEN  =      -203.00455854 eV

  energy without entropy =     -203.00455854  energy(sigma->0) =     -203.00455854


--------------------------------------------------------------------------------------------------------




--------------------------------------- Iteration      1(  10)  ---------------------------------------


    POTLOK:  cpu time      0.0404: real time      0.0404
    SETDIJ:  cpu time      5.5075: real time      5.5101
    TRIAL :  cpu time      2.0427: real time      2.0439
 BZINTS: Fermi energy:    1.275391;  292.000000 electrons
         Band energy:-0.264336E+04;  BLOECHL correction:   -0.144753
 BZINTS: Fermi energy:    1.210187;  292.000000 electrons
         Band energy:-0.264976E+04;  BLOECHL correction:   -0.132807
    CORREC:  cpu time      6.3463: real time      6.3487
    CHARGE:  cpu time      0.3148: real time      0.3149
    --------------------------------------------
      LOOP:  cpu time     14.2525: real time     14.2591

 eigenvalue-minimisations  :     0
 total energy-change (2. order) :-0.8473613E+00  (-0.6557649E+00)
 number of electron     292.0000011 magnetization      30.0000005
 augmentation part       45.6842446 magnetization      25.5884076

 Free energy of the ion-electron system (eV)
  ---------------------------------------------------
  alpha Z        PSCENC =      1199.08378299
  Ewald energy   TEWEN  =    -15082.34218532
  -Hartree energ DENC   =     -7988.62788304
  -exchange      EXHF   =         0.00000000
  -V(xc)+E(xc)   XCENC  =       281.78414831
  PAW double counting   =     23580.57991339   -23780.15885331
  entropy T*S    EENTRO =         0.00000000
  eigenvalues    EBANDS =     -2557.29514422
  atomic energy  EATOM  =     24143.12430131
  ---------------------------------------------------
  free energy    TOTEN  =      -203.85191987 eV

  energy without entropy =     -203.85191987  energy(sigma->0) =     -203.85191987


--------------------------------------------------------------------------------------------------------




--------------------------------------- Iteration      1(  11)  ---------------------------------------


    POTLOK:  cpu time      0.0404: real time      0.0404
    SETDIJ:  cpu time      5.4328: real time      5.4348
    TRIAL :  cpu time      2.0399: real time      2.0409
 BZINTS: Fermi energy:    1.499565;  292.000000 electrons
         Band energy:-0.261855E+04;  BLOECHL correction:   -0.126647
 BZINTS: Fermi energy:    1.336756;  292.000000 electrons
         Band energy:-0.263559E+04;  BLOECHL correction:   -0.116311
    CORREC:  cpu time      6.3360: real time      6.3387
    CHARGE:  cpu time      0.3182: real time      0.3184
    --------------------------------------------
      LOOP:  cpu time     14.1686: real time     14.1749

 eigenvalue-minimisations  :     0
 total energy-change (2. order) :-0.6350603E+00  (-0.4958695E+00)
 number of electron     292.0000011 magnetization      30.0000005
 augmentation part       45.6350444 magnetization      25.6729050

 Free energy of the ion-electron system (eV)
  ---------------------------------------------------
  alpha Z        PSCENC =      1199.08378299
  Ewald energy   TEWEN  =    -15082.34218532
  -Hartree energ DENC   =     -7992.43946411
  -exchange      EXHF   =         0.00000000
  -V(xc)+E(xc)   XCENC  =       281.15249037
  PAW double counting   =     23671.52216688   -23862.29784002
  entropy T*S    EENTRO =         0.00000000
  eigenvalues    EBANDS =     -2562.29023230
  atomic energy  EATOM  =     24143.12430131
  ---------------------------------------------------
  free energy    TOTEN  =      -204.48698020 eV

  energy without entropy =     -204.48698020  energy(sigma->0) =     -204.48698020


--------------------------------------------------------------------------------------------------------




--------------------------------------- Iteration      1(  12)  ---------------------------------------


    POTLOK:  cpu time      0.0407: real time      0.0407
    SETDIJ:  cpu time      5.4799: real time      5.4823
    TRIAL :  cpu time      2.0402: real time      2.0413
 BZINTS: Fermi energy:    1.436387;  292.000000 electrons
         Band energy:-0.262073E+04;  BLOECHL correction:   -0.129718
 BZINTS: Fermi energy:    1.395979;  292.000000 electrons
         Band energy:-0.262651E+04;  BLOECHL correction:   -0.127418
    CORREC:  cpu time      6.3321: real time      6.3344
    CHARGE:  cpu time      0.3161: real time      0.3162
    --------------------------------------------
      LOOP:  cpu time     14.2106: real time     14.2174

 eigenvalue-minimisations  :     0
 total energy-change (2. order) :-0.4474730E+00  (-0.2066759E+00)
 number of electron     292.0000011 magnetization      29.9799627
 augmentation part       45.4765176 magnetization      25.7224435

 Free energy of the ion-electron system (eV)
  ---------------------------------------------------
  alpha Z        PSCENC =      1199.08378299
  Ewald energy   TEWEN  =    -15082.34218532
  -Hartree energ DENC   =     -7967.03225008
  -exchange      EXHF   =         0.00000000
  -V(xc)+E(xc)   XCENC  =       280.10059821
  PAW double counting   =     23720.32964973   -23896.36255045
  entropy T*S    EENTRO =         0.00000000
  eigenvalues    EBANDS =     -2601.83579964
  atomic energy  EATOM  =     24143.12430131
  ---------------------------------------------------
  free energy    TOTEN  =      -204.93445324 eV

  energy without entropy =     -204.93445324  energy(sigma->0) =     -204.93445324


--------------------------------------------------------------------------------------------------------




--------------------------------------- Iteration      1(  13)  ---------------------------------------


    POTLOK:  cpu time      0.0407: real time      0.0407
    SETDIJ:  cpu time      5.4513: real time      5.4529
    TRIAL :  cpu time      2.0414: real time      2.0420
 BZINTS: Fermi energy:    1.472223;  292.000000 electrons
         Band energy:-0.261542E+04;  BLOECHL correction:   -0.174402
 BZINTS: Fermi energy:    1.453953;  292.000000 electrons
         Band energy:-0.261791E+04;  BLOECHL correction:   -0.164579
    CORREC:  cpu time      6.3485: real time      6.3507
    CHARGE:  cpu time      0.3142: real time      0.3143
    --------------------------------------------
      LOOP:  cpu time     14.1992: real time     14.2039

 eigenvalue-minimisations  :     0
 total energy-change (2. order) :-0.2040044E+00  (-0.2211173E+00)
 number of electron     292.0000011 magnetization      29.7983627
 augmentation part       45.2589502 magnetization      25.7797653

 Free energy of the ion-electron system (eV)
  ---------------------------------------------------
  alpha Z        PSCENC =      1199.08378299
  Ewald energy   TEWEN  =    -15082.34218532
  -Hartree energ DENC   =     -7935.48230177
  -exchange      EXHF   =         0.00000000
  -V(xc)+E(xc)   XCENC  =       279.56481999
  PAW double counting   =     23708.57230651   -23875.63091348
  entropy T*S    EENTRO =         0.00000000
  eigenvalues    EBANDS =     -2642.02826788
  atomic energy  EATOM  =     24143.12430131
  ---------------------------------------------------
  free energy    TOTEN  =      -205.13845765 eV

  energy without entropy =     -205.13845765  energy(sigma->0) =     -205.13845765


--------------------------------------------------------------------------------------------------------




--------------------------------------- Iteration      1(  14)  ---------------------------------------


    POTLOK:  cpu time      0.0407: real time      0.0407
    SETDIJ:  cpu time      5.4776: real time      5.4796
    TRIAL :  cpu time      2.0415: real time      2.0427
 BZINTS: Fermi energy:    1.562180;  292.000000 electrons
         Band energy:-0.261331E+04;  BLOECHL correction:   -0.189026
 BZINTS: Fermi energy:    1.499400;  292.000000 electrons
         Band energy:-0.261579E+04;  BLOECHL correction:   -0.160912
    CORREC:  cpu time      6.3650: real time      6.3676
    CHARGE:  cpu time      0.3153: real time      0.3155
    --------------------------------------------
      LOOP:  cpu time     14.2423: real time     14.2486

 eigenvalue-minimisations  :     0
 total energy-change (2. order) :-0.2328826E+00  (-0.1409719E+00)
 number of electron     292.0000011 magnetization      29.6463174
 augmentation part       45.1574605 magnetization      25.8064246

 Free energy of the ion-electron system (eV)
  ---------------------------------------------------
  alpha Z        PSCENC =      1199.08378299
  Ewald energy   TEWEN  =    -15082.34218532
  -Hartree energ DENC   =     -7913.01127621
  -exchange      EXHF   =         0.00000000
  -V(xc)+E(xc)   XCENC  =       279.53907776
  PAW double counting   =     23679.22223091   -23841.74885394
  entropy T*S    EENTRO =         0.00000000
  eigenvalues    EBANDS =     -2669.23841774
  atomic energy  EATOM  =     24143.12430131
  ---------------------------------------------------
  free energy    TOTEN  =      -205.37134023 eV

  energy without entropy =     -205.37134023  energy(sigma->0) =     -205.37134023


--------------------------------------------------------------------------------------------------------




--------------------------------------- Iteration      1(  15)  ---------------------------------------


    POTLOK:  cpu time      0.0404: real time      0.0404
    SETDIJ:  cpu time      5.4725: real time      5.4746
    TRIAL :  cpu time      2.0416: real time      2.0426
 BZINTS: Fermi energy:    1.546538;  292.000000 electrons
         Band energy:-0.261871E+04;  BLOECHL correction:   -0.169025
 BZINTS: Fermi energy:    1.530732;  292.000000 electrons
         Band energy:-0.261776E+04;  BLOECHL correction:   -0.162114
    CORREC:  cpu time      6.4016: real time      6.4060
    CHARGE:  cpu time      0.3185: real time      0.3188
    --------------------------------------------
      LOOP:  cpu time     14.2763: real time     14.2843

 eigenvalue-minimisations  :     0
 total energy-change (2. order) :-0.1206050E+00  (-0.8930582E-01)
 number of electron     292.0000011 magnetization      29.5685044
 augmentation part       45.1145331 magnetization      25.8128248

 Free energy of the ion-electron system (eV)
  ---------------------------------------------------
  alpha Z        PSCENC =      1199.08378299
  Ewald energy   TEWEN  =    -15082.34218532
  -Hartree energ DENC   =     -7927.61343089
  -exchange      EXHF   =         0.00000000
  -V(xc)+E(xc)   XCENC  =       280.00361487
  PAW double counting   =     23667.72241157   -23832.26075145
  entropy T*S    EENTRO =         0.00000000
  eigenvalues    EBANDS =     -2653.20968832
  atomic energy  EATOM  =     24143.12430131
  ---------------------------------------------------
  free energy    TOTEN  =      -205.49194523 eV

  energy without entropy =     -205.49194523  energy(sigma->0) =     -205.49194523


--------------------------------------------------------------------------------------------------------




--------------------------------------- Iteration      1(  16)  ---------------------------------------


    POTLOK:  cpu time      0.0405: real time      0.0405
    SETDIJ:  cpu time      5.4866: real time      5.4906
    TRIAL :  cpu time      2.0418: real time      2.0438
 BZINTS: Fermi energy:    1.554138;  292.000000 electrons
         Band energy:-0.262070E+04;  BLOECHL correction:   -0.187849
 BZINTS: Fermi energy:    1.545964;  292.000000 electrons
         Band energy:-0.261972E+04;  BLOECHL correction:   -0.180425
    CORREC:  cpu time      6.4177: real time      6.4231
    CHARGE:  cpu time      0.3212: real time      0.3214
    --------------------------------------------
      LOOP:  cpu time     14.3086: real time     14.3202

 eigenvalue-minimisations  :     0
 total energy-change (2. order) :-0.8205247E-01  (-0.6186176E-01)
 number of electron     292.0000011 magnetization      29.4367356
 augmentation part       45.0678795 magnetization      25.8036427

 Free energy of the ion-electron system (eV)
  ---------------------------------------------------
  alpha Z        PSCENC =      1199.08378299
  Ewald energy   TEWEN  =    -15082.34218532
  -Hartree energ DENC   =     -7953.37445532
  -exchange      EXHF   =         0.00000000
  -V(xc)+E(xc)   XCENC  =       280.58899904
  PAW double counting   =     23662.84793512   -23831.02461392
  entropy T*S    EENTRO =         0.00000000
  eigenvalues    EBANDS =     -2624.47776161
  atomic energy  EATOM  =     24143.12430131
  ---------------------------------------------------
  free energy    TOTEN  =      -205.57399770 eV

  energy without entropy =     -205.57399770  energy(sigma->0) =     -205.57399770


--------------------------------------------------------------------------------------------------------




--------------------------------------- Iteration      1(  17)  ---------------------------------------


    POTLOK:  cpu time      0.0408: real time      0.0408
    SETDIJ:  cpu time      5.5031: real time      5.5054
    TRIAL :  cpu time      2.0388: real time      2.0397
 BZINTS: Fermi energy:    1.582678;  292.000000 electrons
         Band energy:-0.262180E+04;  BLOECHL correction:   -0.182627
 BZINTS: Fermi energy:    1.564595;  292.000000 electrons
         Band energy:-0.262079E+04;  BLOECHL correction:   -0.181793
    CORREC:  cpu time      6.3707: real time      6.3744
    CHARGE:  cpu time      0.3164: real time      0.3167
    --------------------------------------------
      LOOP:  cpu time     14.2705: real time     14.2778

 eigenvalue-minimisations  :     0
 total energy-change (2. order) :-0.7322720E-01  (-0.3940986E-01)
 number of electron     292.0000011 magnetization      29.4045986
 augmentation part       45.0111317 magnetization      25.7776601

 Free energy of the ion-electron system (eV)
  ---------------------------------------------------
  alpha Z        PSCENC =      1199.08378299
  Ewald energy   TEWEN  =    -15082.34218532
  -Hartree energ DENC   =     -7965.43953131
  -exchange      EXHF   =         0.00000000
  -V(xc)+E(xc)   XCENC  =       280.87543842
  PAW double counting   =     23653.41927812   -23822.07864750
  entropy T*S    EENTRO =         0.00000000
  eigenvalues    EBANDS =     -2612.28966162
  atomic energy  EATOM  =     24143.12430131
  ---------------------------------------------------
  free energy    TOTEN  =      -205.64722490 eV

  energy without entropy =     -205.64722490  energy(sigma->0) =     -205.64722490


--------------------------------------------------------------------------------------------------------




--------------------------------------- Iteration      1(  18)  ---------------------------------------


    POTLOK:  cpu time      0.0411: real time      0.0411
    SETDIJ:  cpu time      5.5089: real time      5.5117
    TRIAL :  cpu time      2.0423: real time      2.0436
 BZINTS: Fermi energy:    1.601937;  292.000000 electrons
         Band energy:-0.262134E+04;  BLOECHL correction:   -0.174789
 BZINTS: Fermi energy:    1.581034;  292.000000 electrons
         Band energy:-0.262103E+04;  BLOECHL correction:   -0.178857
    CORREC:  cpu time      6.3824: real time      6.3857
    CHARGE:  cpu time      0.3171: real time      0.3173
    --------------------------------------------
      LOOP:  cpu time     14.2929: real time     14.3006

 eigenvalue-minimisations  :     0
 total energy-change (2. order) :-0.3202897E-01  (-0.4073929E-01)
 number of electron     292.0000011 magnetization      29.4289976
 augmentation part       44.9558048 magnetization      25.7446396

 Free energy of the ion-electron system (eV)
  ---------------------------------------------------
  alpha Z        PSCENC =      1199.08378299
  Ewald energy   TEWEN  =    -15082.34218532
  -Hartree energ DENC   =     -7970.11729357
  -exchange      EXHF   =         0.00000000
  -V(xc)+E(xc)   XCENC  =       280.91179833
  PAW double counting   =     23641.05298100   -23807.58275785
  entropy T*S    EENTRO =         0.00000000
  eigenvalues    EBANDS =     -2609.80988077
  atomic energy  EATOM  =     24143.12430131
  ---------------------------------------------------
  free energy    TOTEN  =      -205.67925387 eV

  energy without entropy =     -205.67925387  energy(sigma->0) =     -205.67925387


--------------------------------------------------------------------------------------------------------




--------------------------------------- Iteration      1(  19)  ---------------------------------------


    POTLOK:  cpu time      0.0407: real time      0.0407
[...]
  139          w1_dscal                              0.130627                      17512   4
  140          lincom                                0.280419                        352   4
  141          orthch                                0.593430                         44   4
  142            overl                                 0.001956                      176   5
  143            orth1                                 0.035802                     2288   5
  144            choleski                              0.476019                      176   5
  145            lincom                                0.007944                      176   5
  146          redis_pw_over_bands                   0.000004                         44   4
  147        eddiag                                2.778418                           23   3
  148          fftwav_mpi                            0.270937                      18308   4
  149            fftwav                                0.249962                    18308   5
  150              fft3d                                 0.119678                  18308   6
  151          eccp                                  1.968383                      17512   4
  152          m_sumb_d                              0.050950                         22   4
  153          m_bcast_z                             0.000411                         23   4
  154          overl                                 0.000055                          4   4
  155          hamilt_local                          0.077133                        796   4
  156            vhamil                                0.003231                      796   5
  157            kinhamil                              0.011011                      796   5
  158              fftext_mpi                            0.007812                    796   6
  159                fft3d_mpi                             0.004865                  796   7
  160                  fft3d                                 0.004645                796   8
  161          orth1                                 0.001259                         52   4
  162          shift_bands_between_low_high          0.000001                          4   4
  163          lincom                                0.000253                          4   4
  164        m_bcast_z                             0.000024                            1   3
  165      rotate_active_occupied_orbital        0.000000                              1   2
  166      sphpro_fast                           0.181763                              2   2
  167        m_sumb_d                              0.007170                            5   3
  168      force_and_stress                     10.690020                              1   2
  169        forloc                                0.013753                            1   3
  170        fornlr                                0.605881                            1   3
  171          rspher_all                            0.121846                          3   4
  172          phaser                                0.051591                          6   4
  173          rpro_isp                              0.431367                          6   4
  174            fftwav_mpi                            0.081859                     2388   5
  175              fftwav                                0.079073                   2388   6
  176                fft3d                                 0.015936                 2388   7
  177            rpromu_acc                            0.211099                      600   5
  178          m_sumb_d                              0.000040                          1   4
  179        fordep                                0.617279                            1   3
  180          setdij_                               0.617020                          6   4
  181        setdij_                               2.042596                           20   3
  182        set_dd_magatom                        0.000005                            1   3
  183        set_dd_paw                            5.395257                            1   3
  184          m_sumb_d                              0.491546                          7   4
  185        strkin                                0.003126                            1   3
  186          m_sumb_d                              0.000019                          1   4
  187        strelo                                0.031755                            1   3
  188        strnlr                                1.813374                            1   3
  189          rspher_all                            0.365588                          9   4
  190          phaser                                0.153761                         18   4
  191          rpro_isp                              1.290548                         18   4
  192            fftwav_mpi                            0.243782                     7164   5
  193              fftwav                                0.235456                   7164   6
  194                fft3d                                 0.047240                 7164   7
  195            rpromu_acc                            0.632581                     1800   5
  196          m_sumb_d                              0.000330                          9   4
  197        fft3d_mpi                             0.009223                           22   3
  198          fftbrc_mpi                            0.006327                         22   4
  199            fftbas_plan_mpi                       0.006315                       22   5
  200              map_forward                           0.003069                     20   6
  201                map_scatter                           0.001589                   10   7
  202              map_backward                          0.002613                     24   6
  203                map_gather                            0.001303                   12   7
  204        forhar                                0.013708                            1   3
  205        strehar                               0.017035                            1   3
  206        m_bcast_d                             0.005845                            2   3
  207      potlok                                0.339745                              2   2
  208        fft3d_mpi                             0.216828                           36   3
  209          fftbrc_mpi                            0.180819                         36   4
  210            fftbas_plan_mpi                       0.180804                       36   5
  211              map_forward                           0.029678                     40   6
  212                map_scatter                           0.020843                   20   7
  213              map_backward                          0.029592                     32   6
  214                map_gather                            0.022859                   16   7
  215              dfftw_execute                         0.119708                     30   6
  216        pothar                                0.021000                            2   3
  217      potlok_metagga                        0.000000                              1   2
  218      set_dd_magatom                        0.000004                              1   2
  219      set_dd_paw                            5.369591                              1   2
  220        m_sumb_d                              0.475650                            7   3
  221      augmentation_charge                   0.164335                              1   2
  222        fft3d_mpi                             0.051651                            2   3
  223          fftbrc_mpi                            0.042948                          2   4
  224            fftbas_plan_mpi                       0.042947                        2   5
  225              dfftw_execute                         0.028975                      6   6
  226              map_backward                          0.013745                      4   6
  227                map_gather                            0.010984                    2   7
 
 Flat profile
 ============
 
             routine name                   CPU           calls
 ---------------------------------------------------------------
 set_dd_paw                            230.282125          47
 total_time                             31.679479           1
 m_sumb_d                               23.419350         833
 edwav                                  19.789356          44
 eccp                                    9.485598       74028
 rpro1_acc                               8.707603       17512
 setdij_                                 7.516909          73
 init_acc                                6.991338           1
 racc0_acc                               6.654933       17512
 augmentation_charge                     5.343030          46
 densta                                  4.361960          56
 elmin_all                               3.211040           1
 eddav                                   2.713153           5
 acc_init_cublas                         2.417691           1
 fftwav                                  2.274612      114066
 overl                                   1.937345       41794
 dfftw_execute                           1.866543         624
 set_charge                              1.675139          45
 fftext_mpi                              1.552573       49771
 soft_charge                             1.473826          45
 potlok                                  1.462961          47
 pw_charge                               1.191038       26464
 phaser                                  1.148910         134
 fft3d                                   1.139522      163837
 raccmu_                                 1.083738        1754
 fft3d_mpi                               0.933741       51197
 rpromu_acc                              0.919131        3854
 lapack                                  0.883790        1754
 acc_init_cusolver                       0.790901           1
 hamilt_local                            0.643512       18308
 map_gather                              0.642619         756
 depsum                                  0.599759          45
 rpro_isp                                0.587968          26
 rspher_all                              0.542057          14
 choleski                                0.486730         180
 eddiag                                  0.409036          23
 vhamil                                  0.361991       32259
 lincom                                  0.290397         556
 kinhamil                                0.289775       32259
 hamiltmu                                0.286788        1754
 newband                                 0.266448        1774
 orthch                                  0.250317          45
 proall                                  0.234909           1
 stufak                                  0.222748           1
 map_backward                            0.218589        1512
 orth1                                   0.199803        9854
 w1_copy                                 0.196062       41853
 sphpro_fast                             0.174593           2
 map_scatter                             0.155718         670
 setup_precond                           0.139839        3980
 acc_cufft_makeplan                      0.138199          19
 fftwav_mpi                              0.137121      114066
 w1_dscal                                0.130627       17512
 force_and_stress                        0.121183           1
 map_forward                             0.112929        1340
 racc0mu_acc                             0.095872        1754
 fftbas_plan_mpi                         0.062292        1426
 apply_precond                           0.047662        9971
 pothar                                  0.033028          47
 strelo                                  0.031755           1
 overl_mu                                0.028619        1754
 ggemm                                   0.026201        2254
 strehar                                 0.017035           1
 forloc                                  0.013753           1
 forhar                                  0.013708           1
 fft_gq                                  0.010324          45
 rsp                                     0.008132           1
 m_bcast_d                               0.006043           7
 inisym                                  0.004372           1
 strnlr                                  0.003147           1
 strkin                                  0.003107           1
 brgrid                                  0.002084           1
 m_bcast_z                               0.001549          87
 truncate_high_frequency_w1              0.001348       17931
 w1_projall                              0.001261        1254
 fornlr                                  0.001037           1
 fftbrc_mpi                              0.000734        1426
 fewald                                  0.000358           1
 fordep                                  0.000259           1
 rcp                                     0.000046           1
 posmap                                  0.000033           2
 crpa_reader                             0.000027           1
 acc_cufft_makeplans                     0.000014           3
 set_dd_magatom                          0.000009           2
 vectorpot                               0.000005           1
 potlok_metagga                          0.000005          46
 redis_pw_over_bands                     0.000004          45
 shift_bands_between_low_high            0.000001           4
 rotate_active_occupied_orbital          0.000000           1
 ---------------------------------------------------------------
  summed up times     391.1608829498291     
 
 Accumulative profile
 ====================
 
             routine name                   CPU           calls
 ---------------------------------------------------------------
 total_time                            391.160883           1
 elmin_all                             328.446045           1
 set_dd_paw                            253.185763          47
 edwav                                  49.984996          44
 m_sumb_d                               23.419350         833
 set_charge                             14.296188          45
 force_and_stress                       10.690020           1
 eccp                                    9.485598       74028
 rpro1_acc                               8.707603       17512
 augmentation_charge                     7.882304          46
 setdij_                                 7.516909          73
 eddav                                   7.372804           5
 init_acc                                6.991338           1
 racc0_acc                               6.654933       17512
 densta                                  4.362941          56
 fft3d_mpi                               4.345786       51197
 soft_charge                             4.284167          45
 fftwav_mpi                              3.198634      114066
 fftwav                                  3.061513      114066
 fftbrc_mpi                              3.059424        1426
 fftbas_plan_mpi                         3.058690        1426
 eddiag                                  2.778418          23
 acc_init_cublas                         2.417691           1
 potlok                                  2.193743          47
 hamilt_local                            2.016283       18308
 overl                                   1.937345       41794
 fftext_mpi                              1.919170       49771
 dfftw_execute                           1.866543         624
 rpro_isp                                1.817232          26
 strnlr                                  1.813374           1
 hamiltmu                                1.760056        1754
 kinhamil                                1.275818       32259
 raccmu_                                 1.208230        1754
 pw_charge                               1.191038       26464
 phaser                                  1.148910         134
 fft3d                                   1.139522      163837
 newband                                 0.966064        1774
 rpromu_acc                              0.919131        3854
 lapack                                  0.883790        1754
 map_backward                            0.861208        1512
 acc_init_cusolver                       0.790901           1
 orthch                                  0.784151          45
 map_gather                              0.642619         756
 depsum                                  0.618914          45
 fordep                                  0.617279           1
 fornlr                                  0.605881           1
 rspher_all                              0.542057          14
 choleski                                0.486730         180
 vhamil                                  0.361991       32259
 proall                                  0.348985           1
 fft_gq                                  0.344855          45
 lincom                                  0.290397         556
 map_forward                             0.268647        1340
 stufak                                  0.222748           1
 orth1                                   0.199803        9854
 w1_copy                                 0.196062       41853
 sphpro_fast                             0.181763           2
 map_scatter                             0.155718         670
 setup_precond                           0.139839        3980
 acc_cufft_makeplans                     0.138213           3
 acc_cufft_makeplan                      0.138199          19
 w1_dscal                                0.130627       17512
 racc0mu_acc                             0.095872        1754
 w1_projall                              0.062707        1254
 apply_precond                           0.047662        9971
 pothar                                  0.033028          47
 strelo                                  0.031755           1
 overl_mu                                0.028619        1754
 ggemm                                   0.026201        2254
 strehar                                 0.017035           1
 forloc                                  0.013753           1
 forhar                                  0.013708           1
 fewald                                  0.008648           1
 rsp                                     0.008132           1
 m_bcast_d                               0.006043           7
 inisym                                  0.004405           1
 strkin                                  0.003126           1
 brgrid                                  0.002084           1
 m_bcast_z                               0.001549          87
 truncate_high_frequency_w1              0.001348       17931
 rcp                                     0.000046           1
 posmap                                  0.000033           2
 crpa_reader                             0.000027           1
 set_dd_magatom                          0.000009           2
 vectorpot                               0.000005           1
 potlok_metagga                          0.000005          46
 redis_pw_over_bands                     0.000004          45
 shift_bands_between_low_high            0.000001           4
 rotate_active_occupied_orbital          0.000000           1
 ---------------------------------------------------------------
 
Profiling took   0.098449  0.068382  0.003176  0.003089 seconds
Profiling took   0.071432 seconds
