 vasp.6.3.2 27Jun22 (build Jul  3 2023 11:46:21) complex                         
 executed on    LinuxNV_CrayMPICH date 2024.04.20  15:37:29
 running on    4 total cores
 distrk:  each k-point on    4 cores,    1 groups
 distr:  one band on NCORE=   1 cores,    4 groups


--------------------------------------------------------------------------------------------------------


 INCAR:
   ALGO = Fast
   EDIFF = 0.0022
   EFIELD_PEAD = 0.0 0.0 0.0
   ENCUT = 520.0
   IBRION = 2
   ICHARG = 1
   ISIF = 3
   ISMEAR = 0
   ISPIN = 2
   ISTART = 1
   LCALCEPS = False
   LCALCPOL = False
   LEFG = False
   LORBIT = 11
   LPEAD = False
   LREAL = Auto
   LWAVE = False
   MAGMOM = 12*7.0 32*0.6
   NELM = 1000
   NSW = 99
   PREC = accurate
   SIGMA = 0.2

 POTCAR:    PAW_PBE Eu 23Dec2003                  
 POTCAR:    PAW_PBE Nb_pv 08Apr2002               
 POTCAR:    PAW_PBE O 08Apr2002                   
 POTCAR:    PAW_PBE Eu 23Dec2003                  
   SHA256 =  ed303d27e7c5191953f9b15539336e6f36d9037c1d2e92e80c13d733697cb93d Eu/POTCAR             
   COPYR  = (c) Copyright 23Dec2003 Georg Kresse                                                    
   COPYR  = This file is part of the software VASP. Any use, copying, and all other rights are regul
   COPYR  = If you do not have a valid VASP license, you may not use, copy or distribute this file. 
   VRHFIN =Eu : [core=Kr4d]                                                                         
   LEXCH  = PE                                                                                      
   EATOM  =  2619.8085 eV,  192.5505 Ry                                                             
                                                                                                    
   TITEL  = PAW_PBE Eu 23Dec2003                                                                    
   LULTRA =        F    use ultrasoft PP ?                                                          
   IUNSCR =        1    unscreen: 0-lin 1-nonlin 2-no                                               
   RPACOR =    2.300    partial core radius                                                         
   POMASS =  151.965; ZVAL   =   17.000    mass and valenz                                          
   RCORE  =    2.800    outmost cutoff radius                                                       
   RWIGS  =    2.800; RWIGS  =    1.482    wigner-seitz radius (au A)                               
   ENMAX  =  249.668; ENMIN  =  187.251 eV                                                          
   RCLOC  =    2.308    cutoff for local pot                                                        
   LCOR   =        T    correct aug charges                                                         
   LPAW   =        T    paw PP                                                                      
   EAUG   =  549.628                                                                                
   DEXC   =    0.000                                                                                
   RMAX   =    2.870    core radius for proj-oper                                                   
   RAUG   =    1.300    factor for augmentation sphere                                              
   RDEP   =    2.887    radius for radial grids                                                     
   RDEPT  =    2.221    core radius for aug-charge                                                  
                                                                                                    
   Atomic configuration                                                                             
   14 entries                                                                                       
     n  l   j            E        occ.                                                              
     1  0  0.50    -48354.7667   2.0000                                                             
     2  0  0.50     -7939.6472   2.0000                                                             
     2  1  1.50     -7072.6637   6.0000                                                             
     3  0  0.50     -1747.1875   2.0000                                                             
     3  1  1.50     -1477.5221   6.0000                                                             
     3  2  2.50     -1117.4686  10.0000                                                             
     4  0  0.50      -346.8682   2.0000                                                             
     4  1  1.50      -258.1962   6.0000                                                             
     4  2  2.50      -134.7724  10.0000                                                             
     5  0  0.50       -44.6510   2.0000                                                             
     6  0  0.50        -3.6227   2.0000                                                             
     5  1  1.50       -23.7639   6.0000                                                             
     5  2  2.50        -1.3130   0.0000                                                             
     4  3  2.50        -2.7310   7.0000                                                             
   Description                                                                                      
     l       E           TYP  RCUT    TYP  RCUT                                                     
     0    -44.6510453     23  2.400                                                                 
     0     -3.6226685     23  2.400                                                                 
     1    -23.7638687     23  2.400                                                                 
     1     27.2116520     23  2.400                                                                 
     2     -1.3129622     23  2.500                                                                 
     2     13.6058260     23  2.500                                                                 
     3     -2.7309948     23  2.800                                                                 
     3     -3.4014565     23  2.800                                                                 
  local pseudopotential read in
  partial core-charges read in
  partial kinetic energy density read in
  atomic valenz-charges read in
  non local Contribution for L=            0  read in
    real space projection operators read in
  non local Contribution for L=            0  read in
    real space projection operators read in
  non local Contribution for L=            1  read in
    real space projection operators read in
  non local Contribution for L=            1  read in
    real space projection operators read in
  non local Contribution for L=            2  read in
    real space projection operators read in
  non local Contribution for L=            2  read in
    real space projection operators read in
  non local Contribution for L=            3  read in
    real space projection operators read in
  non local Contribution for L=            3  read in
    real space projection operators read in
    PAW grid and wavefunctions read in
 
   number of l-projection  operators is LMAX  =            8
   number of lm-projection operators is LMMAX =           32
 
 POTCAR:    PAW_PBE Nb_pv 08Apr2002               
   SHA256 =  bac2b60850b34f8515cf56f9feae68b678e347865051052a0e1f5d2c6a691c0a Nb_pv/POTCAR          
   COPYR  = (c) Copyright 08Apr2002 Georg Kresse                                                    
   COPYR  = This file is part of the software VASP. Any use, copying, and all other rights are regul
   COPYR  = If you do not have a valid VASP license, you may not use, copy or distribute this file. 
   VRHFIN =Nb: 4p5s4d                                                                               
   LEXCH  = PE                                                                                      
   EATOM  =  1043.3917 eV,   76.6871 Ry                                                             
                                                                                                    
   TITEL  = PAW_PBE Nb_pv 08Apr2002                                                                 
   LULTRA =        F    use ultrasoft PP ?                                                          
   IUNSCR =        1    unscreen: 0-lin 1-nonlin 2-no                                               
   RPACOR =    2.200    partial core radius                                                         
   POMASS =   92.000; ZVAL   =   11.000    mass and valenz                                          
   RCORE  =    2.750    outmost cutoff radius                                                       
   RWIGS  =    2.840; RWIGS  =    1.503    wigner-seitz radius (au A)                               
   ENMAX  =  208.608; ENMIN  =  156.456 eV                                                          
   RCLOC  =    2.201    cutoff for local pot                                                        
   LCOR   =        T    correct aug charges                                                         
   LPAW   =        T    paw PP                                                                      
   EAUG   =  355.067                                                                                
   DEXC   =    0.000                                                                                
   RMAX   =    2.804    core radius for proj-oper                                                   
   RAUG   =    1.300    factor for augmentation sphere                                              
   RDEP   =    2.776    radius for radial grids                                                     
   RDEPT  =    2.198    core radius for aug-charge                                                  
                                                                                                    
   Atomic configuration                                                                             
   11 entries                                                                                       
     n  l   j            E        occ.                                                              
     1  0  0.50    -18805.2456   2.0000                                                             
     2  0  0.50     -2630.2869   2.0000                                                             
     2  1  1.50     -2348.4045   6.0000                                                             
     3  0  0.50      -438.8756   2.0000                                                             
     3  1  1.50      -346.7587   6.0000                                                             
     3  2  2.50      -196.2559  10.0000                                                             
     4  0  0.50       -58.3859   2.0000                                                             
     4  1  1.50       -34.5141   6.0000                                                             
     4  2  2.50        -3.0408   4.0000                                                             
     5  0  0.50        -3.9816   1.0000                                                             
     4  3  2.50        -1.3606   0.0000                                                             
   Description                                                                                      
     l       E           TYP  RCUT    TYP  RCUT                                                     
     1    -34.5140617     23  2.600                                                                 
     1     -1.3605826     23  2.600                                                                 
     2     -3.0407924     23  2.600                                                                 
     2     -1.4463597     23  2.600                                                                 
     0     -3.9816219     23  2.750                                                                 
     0     20.4087390     23  2.750                                                                 
  local pseudopotential read in
  partial core-charges read in
  partial kinetic energy density read in
  atomic valenz-charges read in
  non local Contribution for L=            1  read in
    real space projection operators read in
  non local Contribution for L=            1  read in
    real space projection operators read in
  non local Contribution for L=            2  read in
    real space projection operators read in
  non local Contribution for L=            2  read in
    real space projection operators read in
  non local Contribution for L=            0  read in
    real space projection operators read in
  non local Contribution for L=            0  read in
    real space projection operators read in
    PAW grid and wavefunctions read in
 
   number of l-projection  operators is LMAX  =            6
   number of lm-projection operators is LMMAX =           18
 
 POTCAR:    PAW_PBE O 08Apr2002                   
   SHA256 =  818f92134a0a090dccd8ba1447fa70422a3b330e708bb4f08108d8ae51209ddf O/POTCAR              
   COPYR  = (c) Copyright 08Apr2002 Georg Kresse                                                    
   COPYR  = This file is part of the software VASP. Any use, copying, and all other rights are regul
   COPYR  = If you do not have a valid VASP license, you may not use, copy or distribute this file. 
   VRHFIN =O: s2p4                                                                                  
   LEXCH  = PE                                                                                      
   EATOM  =   432.3788 eV,   31.7789 Ry                                                             
                                                                                                    
   TITEL  = PAW_PBE O 08Apr2002                                                                     
   LULTRA =        F    use ultrasoft PP ?                                                          
   IUNSCR =        1    unscreen: 0-lin 1-nonlin 2-no                                               
   RPACOR =    1.200    partial core radius                                                         
   POMASS =   16.000; ZVAL   =    6.000    mass and valenz                                          
   RCORE  =    1.520    outmost cutoff radius                                                       
   RWIGS  =    1.550; RWIGS  =    0.820    wigner-seitz radius (au A)                               
   ENMAX  =  400.000; ENMIN  =  300.000 eV                                                          
   ICORE  =        2    local potential                                                             
   LCOR   =        T    correct aug charges                                                         
   LPAW   =        T    paw PP                                                                      
   EAUG   =  605.392                                                                                
   DEXC   =    0.000                                                                                
   RMAX   =    1.553    core radius for proj-oper                                                   
   RAUG   =    1.300    factor for augmentation sphere                                              
   RDEP   =    1.550    radius for radial grids                                                     
   RDEPT  =    1.329    core radius for aug-charge                                                  
                                                                                                    
   Atomic configuration                                                                             
    4 entries                                                                                       
     n  l   j            E        occ.                                                              
     1  0  0.50      -514.6923   2.0000                                                             
     2  0  0.50       -23.9615   2.0000                                                             
     2  1  0.50        -9.0305   4.0000                                                             
     3  2  1.50        -9.5241   0.0000                                                             
   Description                                                                                      
     l       E           TYP  RCUT    TYP  RCUT                                                     
     0    -23.9615318     23  1.200                                                                 
     0     -9.5240782     23  1.200                                                                 
     1     -9.0304911     23  1.520                                                                 
     1      8.1634956     23  1.520                                                                 
     2     -9.5240782      7  1.500                                                                 
  local pseudopotential read in
  partial core-charges read in
  partial kinetic energy density read in
  kinetic energy density of atom read in
  atomic valenz-charges read in
  non local Contribution for L=            0  read in
    real space projection operators read in
  non local Contribution for L=            0  read in
    real space projection operators read in
  non local Contribution for L=            1  read in
    real space projection operators read in
  non local Contribution for L=            1  read in
    real space projection operators read in
    PAW grid and wavefunctions read in
 
   number of l-projection  operators is LMAX  =            4
   number of lm-projection operators is LMMAX =            8
 
 Optimization of the real space projectors (new method)

 maximal supplied QI-value         = 13.42
 optimisation between [QCUT,QGAM] = [ 11.67, 23.35] = [ 38.16,152.62] Ry 
 Optimized for a Real-space Cutoff    1.63 Angstroem

   l    n(q)    QCUT    max X(q) W(low)/X(q) W(high)/X(q)  e(spline) 
   0     11    11.673    10.400    0.14E-04    0.18E-05    0.24E-07
   0     11    11.673    10.768    0.21E-04    0.32E-05    0.49E-07
   1     11    11.673     4.094    0.40E-05    0.13E-04    0.93E-07
   1     11    11.673     4.009    0.11E-04    0.46E-04    0.33E-06
   2     10    11.673    29.030    0.79E-04    0.60E-04    0.70E-06
   2     10    11.673    19.941    0.80E-04    0.60E-04    0.71E-06
   3     10    11.673    88.889    0.23E-03    0.29E-03    0.30E-06
   3     10    11.673    76.102    0.23E-03    0.30E-03    0.30E-06
 Optimization of the real space projectors (new method)

 maximal supplied QI-value         = 13.61
 optimisation between [QCUT,QGAM] = [ 11.57, 23.27] = [ 37.45,151.59] Ry 
 Optimized for a Real-space Cutoff    1.63 Angstroem

   l    n(q)    QCUT    max X(q) W(low)/X(q) W(high)/X(q)  e(spline) 
   1     11    11.565     4.545    0.12E-04    0.18E-04    0.64E-07
   1     11    11.565     6.014    0.42E-04    0.48E-04    0.13E-06
   2     10    11.565   266.542    0.24E-03    0.87E-04    0.13E-05
   2     10    11.565   232.726    0.24E-03    0.87E-04    0.13E-05
   0     11    11.565    38.050    0.76E-04    0.32E-05    0.94E-06
   0     11    11.565    16.565    0.58E-04    0.25E-05    0.73E-06
 Optimization of the real space projectors (new method)

 maximal supplied QI-value         = 24.76
 optimisation between [QCUT,QGAM] = [ 11.64, 23.27] = [ 37.91,151.63] Ry 
 Optimized for a Real-space Cutoff    1.14 Angstroem

   l    n(q)    QCUT    max X(q) W(low)/X(q) W(high)/X(q)  e(spline) 
   0      8    11.635    20.381    0.10E-03    0.33E-03    0.24E-06
   0      8    11.635    15.268    0.11E-03    0.35E-03    0.26E-06
   1      7    11.635     5.964    0.24E-03    0.31E-03    0.30E-06
   1      7    11.635     5.382    0.22E-03    0.25E-03    0.26E-06
  PAW_PBE Eu 23Dec2003                  :
 energy of atom  1       EATOM=-2619.8085
 kinetic energy error for atom=    0.0015 (will be added to EATOM!!)
  PAW_PBE Nb_pv 08Apr2002               :
 energy of atom  2       EATOM=-1043.3917
 kinetic energy error for atom=    0.0011 (will be added to EATOM!!)
  PAW_PBE O 08Apr2002                   :
 energy of atom  3       EATOM= -432.3788
 kinetic energy error for atom=    0.0208 (will be added to EATOM!!)
 
 
 POSCAR: Eu12 Nb4 O28
  positions in direct lattice
  No initial velocities read in
 exchange correlation table for  LEXCH =        8
   RHO(1)=    0.500       N(1)  =     2000
   RHO(2)=  100.500       N(2)  =     4000

 VTST: version 4.2, (08/11/21)

 CHAIN: initializing optimizer
 
 OPT: Using VASP Conjugate-Gradient optimizer
 CHAIN: Read ICHAIN             0
 
 POSCAR: Eu12 Nb4 O28
  positions in direct lattice
  No initial velocities read in
 


--------------------------------------------------------------------------------------------------------


 ion  position               nearest neighbor table
   1  0.022  0.506  0.744-  44 2.37  17 2.38  24 2.42  43 2.46  18 2.48  26 2.55  36 2.71
   2  0.203  0.750  0.014-  29 2.20  43 2.24  24 2.33  25 2.38  21 2.44  20 2.50  19 2.63  13 3.51
                            16 3.57
   3  0.213  0.744  0.476-  30 2.30  44 2.32  27 2.36  26 2.37  23 2.47  22 2.52  19 2.74  16 3.49
                            13 3.49
   4  0.287  0.256  0.976-  17 2.30  31 2.32  20 2.36  21 2.37  24 2.47  25 2.52  28 2.74  15 3.49
                            14 3.49
   5  0.297  0.250  0.514-  18 2.20  32 2.24  23 2.33  22 2.38  26 2.44  27 2.50  28 2.63  14 3.51
                            15 3.57
   6  0.478  0.494  0.244-  31 2.37  30 2.38  23 2.42  32 2.46  29 2.48  21 2.55  39 2.71
   7  0.522  0.994  0.256-  30 2.37  31 2.38  38 2.42  29 2.46  32 2.48  40 2.55  22 2.71
   8  0.703  0.750  0.986-  43 2.20  29 2.24  38 2.33  39 2.38  35 2.44  34 2.50  33 2.63  15 3.51
                            14 3.57
   9  0.713  0.756  0.524-  44 2.30  30 2.32  41 2.36  40 2.37  37 2.47  36 2.52  33 2.74  14 3.49
                            15 3.49
  10  0.787  0.244  0.024-  31 2.30  17 2.32  34 2.36  35 2.37  38 2.47  39 2.52  42 2.74  13 3.49
                            16 3.49
  11  0.797  0.250  0.486-  32 2.20  18 2.24  37 2.33  36 2.38  40 2.44  41 2.50  42 2.63  16 3.51
                            13 3.57
  12  0.978  0.006  0.756-  17 2.37  44 2.38  37 2.42  18 2.46  43 2.48  35 2.55  25 2.71
  13  0.005  0.998  0.250-  20 1.95  19 1.96  22 1.98  42 2.04  40 2.05  38 2.09  10 3.49   3 3.49
                             2 3.51  11 3.57
  14  0.495  0.002  0.750-  27 1.95  28 1.96  25 1.98  33 2.04  35 2.05  37 2.09   9 3.49   4 3.49
                             5 3.51   8 3.57
  15  0.505  0.502  0.750-  34 1.95  33 1.96  36 1.98  28 2.04  26 2.05  24 2.09   4 3.49   9 3.49
                             8 3.51   5 3.57
  16  0.995  0.498  0.250-  41 1.95  42 1.96  39 1.98  19 2.04  21 2.05  23 2.09   3 3.49  10 3.49
                            11 3.51   2 3.57
  17  0.014  0.260  0.878-   4 2.30  10 2.32  12 2.37   1 2.38
  18  0.037  0.245  0.610-   5 2.20  11 2.24  12 2.46   1 2.48
  19  0.076  0.752  0.241-  13 1.96  16 2.04   2 2.63   3 2.74
  20  0.148  0.045  0.103-  13 1.95   4 2.36   2 2.50
  21  0.189  0.469  0.119-  16 2.05   4 2.37   2 2.44   6 2.55
  22  0.201  0.036  0.369-  13 1.98   5 2.38   3 2.52   7 2.71
  23  0.212  0.459  0.370-  16 2.09   5 2.33   6 2.42   3 2.47
  24  0.288  0.541  0.870-  15 2.09   2 2.33   1 2.42   4 2.47
  25  0.299  0.964  0.869-  14 1.98   2 2.38   4 2.52  12 2.71
  26  0.311  0.531  0.619-  15 2.05   3 2.37   5 2.44   1 2.55
  27  0.352  0.955  0.603-  14 1.95   3 2.36   5 2.50
  28  0.424  0.248  0.741-  14 1.96  15 2.04   5 2.63   4 2.74
  29  0.463  0.755  0.110-   2 2.20   8 2.24   7 2.46   6 2.48
  30  0.486  0.740  0.378-   3 2.30   9 2.32   7 2.37   6 2.38
  31  0.514  0.240  0.122-  10 2.30   4 2.32   6 2.37   7 2.38
  32  0.537  0.255  0.390-  11 2.20   5 2.24   6 2.46   7 2.48
  33  0.576  0.748  0.759-  15 1.96  14 2.04   8 2.63   9 2.74
  34  0.648  0.455  0.897-  15 1.95  10 2.36   8 2.50
  35  0.689  0.031  0.881-  14 2.05  10 2.37   8 2.44  12 2.55
  36  0.701  0.464  0.631-  15 1.98  11 2.38   9 2.52   1 2.71
  37  0.712  0.041  0.630-  14 2.09  11 2.33  12 2.42   9 2.47
  38  0.788  0.959  0.130-  13 2.09   8 2.33   7 2.42  10 2.47
  39  0.799  0.536  0.131-  16 1.98   8 2.38  10 2.52   6 2.71
  40  0.811  0.969  0.381-  13 2.05   9 2.37  11 2.44   7 2.55
  41  0.852  0.545  0.397-  16 1.95   9 2.36  11 2.50
  42  0.924  0.252  0.259-  16 1.96  13 2.04  11 2.63  10 2.74
  43  0.963  0.745  0.890-   8 2.20   2 2.24   1 2.46  12 2.48
  44  0.986  0.760  0.622-   9 2.30   3 2.32   1 2.37  12 2.38
 
  LATTYP: Found a simple orthorhombic cell.
 ALAT       =     7.4568882800
 B/A-ratio  =     1.0290389009
 C/A-ratio  =     1.4526736801
  
  Lattice vectors:
  
 A1 = (   7.4568882800,   0.0000000000,   0.0000000000)
 A2 = (   0.0000000000,   7.6734281200,   0.0000000000)
 A3 = (   0.0000000000,   0.0000000000,  10.8324253400)


Analysis of symmetry for initial positions (statically):
=====================================================================
 Subroutine PRICEL returns:
 Original cell was already a primitive cell.
 

 Routine SETGRP: Setting up the symmetry group for a 
 simple orthorhombic supercell.


 Subroutine GETGRP returns: Found  4 space group operations
 (whereof  1 operations were pure point group operations)
 out of a pool of  8 trial point group operations.


The static configuration has the point symmetry C_1 .
 The point group associated with its full space group is D_2 .


Analysis of symmetry for dynamics (positions and initial velocities):
=====================================================================
 Subroutine PRICEL returns:
 Original cell was already a primitive cell.
 

 Routine SETGRP: Setting up the symmetry group for a 
 simple orthorhombic supercell.


 Subroutine GETGRP returns: Found  4 space group operations
 (whereof  1 operations were pure point group operations)
 out of a pool of  8 trial point group operations.


The dynamic configuration has the point symmetry C_1 .
 The point group associated with its full space group is D_2 .


Analysis of structural, dynamic, and magnetic symmetry:
=====================================================================
 Subroutine PRICEL returns:
 Original cell was already a primitive cell.
 

 Routine SETGRP: Setting up the symmetry group for a 
 simple orthorhombic supercell.


 Subroutine GETGRP returns: Found  4 space group operations
 (whereof  1 operations were pure point group operations)
 out of a pool of  8 trial point group operations.


The overall configuration has the point symmetry C_1 .
 The point group associated with its full space group is D_2 .


 Subroutine INISYM returns: Found  4 space group operations
 (whereof  1 operations are pure point group operations),
 and found     1 'primitive' translations


----------------------------------------------------------------------------------------

                                     Primitive cell                                     

  volume of cell :     619.8303

  direct lattice vectors                    reciprocal lattice vectors
     7.456888280  0.000000000  0.000000000     0.134104195  0.000000000  0.000000000
     0.000000000  7.673428120  0.000000000     0.000000000  0.130319850  0.000000000
     0.000000000  0.000000000 10.832425340     0.000000000  0.000000000  0.092315430

  length of vectors
     7.456888280  7.673428120 10.832425340     0.134104195  0.130319850  0.092315430

  position of ions in fractional coordinates (direct lattice)
     0.021865000  0.506128530  0.744442980
     0.203370030  0.750036810  0.014088790
     0.212514140  0.744370660  0.475683080
     0.287485860  0.255629340  0.975683080
     0.296629970  0.249963190  0.514088790
     0.478135000  0.493871470  0.244442980
     0.521865000  0.993871470  0.255557020
     0.703370030  0.749963190  0.985911210
     0.712514140  0.755629340  0.524316920
     0.787485860  0.244370660  0.024316920
     0.796629970  0.250036810  0.485911210
     0.978135000  0.006128530  0.755557020
     0.005367730  0.997968100  0.249520810
     0.494632270  0.002031900  0.749520810
     0.505367730  0.502031900  0.750479190
     0.994632270  0.497968100  0.250479190
     0.013523730  0.260180400  0.878222060
     0.036677010  0.245473730  0.609846520
     0.076495430  0.751886030  0.241091040
     0.147935370  0.045356410  0.102914920
     0.189393070  0.468620910  0.118812770
     0.200914270  0.036485580  0.369441690
     0.211604210  0.459091880  0.369620840
     0.288395790  0.540908120  0.869620840
     0.299085730  0.963514420  0.869441690
     0.310606930  0.531379090  0.618812770
     0.352064630  0.954643590  0.602914920
     0.423504570  0.248113970  0.741091040
     0.463322990  0.754526270  0.109846520
     0.486476270  0.739819600  0.378222060
     0.513523730  0.239819600  0.121777940
     0.536677010  0.254526270  0.390153480
     0.576495430  0.748113970  0.758908960
     0.647935370  0.454643590  0.897085080
     0.689393070  0.031379090  0.881187230
     0.700914270  0.463514420  0.630558310
     0.711604210  0.040908120  0.630379160
     0.788395790  0.959091880  0.130379160
     0.799085730  0.536485580  0.130558310
     0.810606930  0.968620910  0.381187230
     0.852064630  0.545356410  0.397085080
     0.923504570  0.251886030  0.258908960
     0.963322990  0.745473730  0.890153480
     0.986476270  0.760180400  0.621777940

  ion indices of the primitive-cell ions
   primitive index   ion index
                 1           1
                 2           2
                 3           3
                 4           4
                 5           5
                 6           6
                 7           7
                 8           8
                 9           9
                10          10
                11          11
                12          12
                13          13
                14          14
                15          15
                16          16
                17          17
                18          18
                19          19
                20          20
                21          21
                22          22
                23          23
                24          24
                25          25
                26          26
                27          27
                28          28
                29          29
                30          30
                31          31
                32          32
                33          33
                34          34
                35          35
                36          36
                37          37
                38          38
                39          39
                40          40
                41          41
                42          42
                43          43
                44          44

----------------------------------------------------------------------------------------

 
 
 KPOINTS: Kpoints from vasprun.xml                

Automatic generation of k-mesh.
 Grid dimensions read from file:
 generate k-points for:    4    4    2

 Generating k-lattice:

  Cartesian coordinates                     Fractional coordinates (reciprocal lattice)
     0.033526049  0.000000000  0.000000000     0.250000000  0.000000000  0.000000000
     0.000000000  0.032579962  0.000000000     0.000000000  0.250000000  0.000000000
     0.000000000  0.000000000  0.046157715     0.000000000  0.000000000  0.500000000

  Length of vectors
     0.033526049  0.032579962  0.046157715

  Shift w.r.t. Gamma in fractional coordinates (k-lattice)
     0.500000000  0.500000000  0.500000000

 
 Subroutine IBZKPT returns following result:
 ===========================================
 
 Found      4 irreducible k-points:
 
 Following reciprocal coordinates:
            Coordinates               Weight
  0.125000  0.125000  0.250000      8.000000
  0.375000  0.125000  0.250000      8.000000
  0.125000  0.375000  0.250000      8.000000
  0.375000  0.375000  0.250000      8.000000
 
 Following cartesian coordinates:
            Coordinates               Weight
  0.016763  0.016290  0.023079      8.000000
  0.050289  0.016290  0.023079      8.000000
  0.016763  0.048870  0.023079      8.000000
  0.050289  0.048870  0.023079      8.000000
 


--------------------------------------------------------------------------------------------------------




 Dimension of arrays:
   k-points           NKPTS =      4   k-points in BZ     NKDIM =      4   number of bands    NBANDS=    304
   number of dos      NEDOS =    301   number of ions     NIONS =     44
   non local maximal  LDIM  =      8   non local SUM 2l+1 LMDIM =     32
   total plane-waves  NPLWV = 282240
   max r-space proj   IRMAX =   8268   max aug-charges    IRDMAX=  28231
   dimension x,y,z NGX =    56 NGY =   60 NGZ =   84
   dimension x,y,z NGXF=   112 NGYF=  120 NGZF=  168
   support grid    NGXF=   112 NGYF=  120 NGZF=  168
   ions per type =              12   4  28
   NGX,Y,Z   is equivalent  to a cutoff of  12.48, 13.00, 12.89 a.u.
   NGXF,Y,Z  is equivalent  to a cutoff of  24.97, 26.00, 25.78 a.u.

 SYSTEM =  unknown system                          
 POSCAR =  Eu12 Nb4 O28                            

 Startparameter for this run:
   NWRITE =      2    write-flag & timer
   PREC   = accura    normal or accurate (medium, high low for compatibility)
   ISTART =      0    job   : 0-new  1-cont  2-samecut
   ICHARG =      1    charge: 1-file 2-atom 10-const
   ISPIN  =      2    spin polarized calculation?
   LNONCOLLINEAR =      F non collinear calculations
   LSORBIT =      F    spin-orbit coupling
   INIWAV =      1    electr: 0-lowe 1-rand  2-diag
   LASPH  =      F    aspherical Exc in radial PAW
 Electronic Relaxation 1
   ENCUT  =  520.0 eV  38.22 Ry    6.18 a.u.  13.86 14.27 20.14*2*pi/ulx,y,z
   ENINI  =  520.0     initial cutoff
   ENAUG  =  605.4 eV  augmentation charge cutoff
   NELM   =   1000;   NELMIN=  2; NELMDL=  0     # of ELM steps 
   EDIFF  = 0.2E-02   stopping-criterion for ELM
   LREAL  =      T    real-space projection
   NLSPLINE    = F    spline interpolate recip. space projectors
   LCOMPAT=      F    compatible to vasp.4.4
   GGA_COMPAT  = T    GGA compatible to vasp.4.4-vasp.4.6
   LMAXPAW     = -100 max onsite density
   LMAXMIX     =    2 max onsite mixed and CHGCAR
   VOSKOWN=      0    Vosko Wilk Nusair interpolation
   ROPT   =   -0.00025  -0.00025  -0.00025
 Ionic relaxation
   EDIFFG = 0.2E-01   stopping-criterion for IOM
   NSW    =     99    number of steps for IOM
   NBLOCK =      1;   KBLOCK =     99    inner block; outer block 
   IBRION =      2    ionic relax: 0-MD 1-quasi-New 2-CG
   NFREE  =      1    steps in history (QN), initial steepest desc. (CG)
   ISIF   =      3    stress and relaxation
   IWAVPR =     11    prediction:  0-non 1-charg 2-wave 3-comb
   ISYM   =      2    0-nonsym 1-usesym 2-fastsym
   LCORR  =      T    Harris-Foulkes like correction to forces

   POTIM  = 0.5000    time-step for ionic-motion
   TEIN   =    0.0    initial temperature
   TEBEG  =    0.0;   TEEND  =   0.0 temperature during run
   SMASS  =  -3.00    Nose mass-parameter (am)
   estimated Nose-frequenzy (Omega)   =  0.10E-29 period in steps = 0.13E+47 mass=  -0.127E-26a.u.
   SCALEE = 1.0000    scale energy and forces
   NPACO  =    256;   APACO  = 10.0  distance and # of slots for P.C.
   PSTRESS=    0.0 pullay stress

  Mass of Ions in am
   POMASS = 151.97 92.00 16.00
  Ionic Valenz
   ZVAL   =  17.00 11.00  6.00
  Atomic Wigner-Seitz radii
   RWIGS  =  -1.00 -1.00 -1.00
  virtual crystal weights 
   VCA    =   1.00  1.00  1.00
   NELECT =     416.0000    total number of electrons
   NUPDOWN=      -1.0000    fix difference up-down

 DOS related values:
   EMIN   =  10.00;   EMAX   =-10.00  energy-range for DOS
   EFERMI =   0.00
   ISMEAR =     0;   SIGMA  =   0.20  broadening in eV -4-tet -1-fermi 0-gaus

 Electronic relaxation 2 (details)
   IALGO  =     68    algorithm
   LDIAG  =      T    sub-space diagonalisation (order eigenvalues)
   LSUBROT=      F    optimize rotation matrix (better conditioning)
   TURBO    =      0    0=normal 1=particle mesh
   IRESTART =      0    0=no restart 2=restart with 2 vectors
   NREBOOT  =      0    no. of reboots
   NMIN     =      0    reboot dimension
   EREF     =   0.00    reference energy to select bands
   IMIX   =      4    mixing-type and parameters
     AMIX     =   0.40;   BMIX     =  1.00
     AMIX_MAG =   1.60;   BMIX_MAG =  1.00
     AMIN     =   0.10
     WC   =   100.;   INIMIX=   1;  MIXPRE=   1;  MAXMIX= -45

 Intra band minimization:
   WEIMIN = 0.0010     energy-eigenvalue tresh-hold
   EBREAK =  0.18E-05  absolut break condition
   DEPER  =   0.30     relativ break condition  

   TIME   =   0.40     timestep for ELM

  volume/ion in A,a.u.               =      14.09        95.06
  Fermi-wavevector in a.u.,A,eV,Ry     =   1.433337  2.708614 27.952562  2.054455
  Thomas-Fermi vector in A             =   2.552866
 
 Write flags
   LWAVE        =      F    write WAVECAR
   LDOWNSAMPLE  =      F    k-point downsampling of WAVECAR
   LCHARG       =      T    write CHGCAR
   LVTOT        =      F    write LOCPOT, total local potential
   LVHAR        =      F    write LOCPOT, Hartree potential only
   LELF         =      F    write electronic localiz. function (ELF)
   LORBIT       =     11    0 simple, 1 ext, 2 COOP (PROOUT), +10 PAW based schemes


 Dipole corrections
   LMONO  =      F    monopole corrections only (constant potential shift)
   LDIPOL =      F    correct potential (dipole corrections)
   IDIPOL =      0    1-x, 2-y, 3-z, 4-all directions 
   EPSILON=  1.0000000 bulk dielectric constant

 Exchange correlation treatment:
   GGA     =    --    GGA type
   LEXCH   =     8    internal setting for exchange type
   LIBXC   =     F    Libxc                    
   VOSKOWN =     0    Vosko Wilk Nusair interpolation
   LHFCALC =     F    Hartree Fock is set to
   LHFONE  =     F    Hartree Fock one center treatment
   AEXX    =    0.0000 exact exchange contribution

 Linear response parameters
   LEPSILON=     F    determine dielectric tensor
   LRPA    =     F    only Hartree local field effects (RPA)
   LNABLA  =     F    use nabla operator in PAW spheres
   LVEL    =     F    velocity operator in full k-point grid
   CSHIFT  =0.1000    complex shift for real part using Kramers Kronig
   OMEGAMAX=  -1.0    maximum frequency
   DEG_THRESHOLD= 0.2000000E-02 threshold for treating states as degnerate
   RTIME   =   -0.100 relaxation time in fs
  (WPLASMAI=    0.000 imaginary part of plasma frequency in eV, 0.658/RTIME)
   DFIELD  = 0.0000000 0.0000000 0.0000000 field for delta impulse in time
 
  Optional k-point grid parameters
   LKPOINTS_OPT  =     F    use optional k-point grid
   KPOINTS_OPT_MODE=     1    mode for optional k-point grid
 
 Orbital magnetization related:
   ORBITALMAG=     F  switch on orbital magnetization
   LCHIMAG   =     F  perturbation theory with respect to B field
   DQ        =  0.001000  dq finite difference perturbation B field
   LLRAUG    =     F  two centre corrections for induced B field



--------------------------------------------------------------------------------------------------------


 conjugate gradient relaxation of ions
 charge density and potential will be updated during run
 spin polarized calculation
 RMM-DIIS sequential band-by-band and
  variant of blocked Davidson during initial phase
 perform sub-space diagonalisation
    before iterative eigenvector-optimisation
 modified Broyden-mixing scheme, WC =      100.0
 initial mixing is a Kerker type mixing with AMIX =  0.4000 and BMIX =      1.0000
 Hartree-type preconditioning will be used
 using additional bands            96
 real space projection scheme for non local part
 use partial core corrections
 calculate Harris-corrections to forces 
   (improved forces if not selfconsistent)
 use gradient corrections 
 use of overlap-Matrix (Vanderbilt PP)
 Gauss-broadening in eV      SIGMA  =   0.20


--------------------------------------------------------------------------------------------------------


  energy-cutoff  :      520.00
  volume of cell :      619.83
      direct lattice vectors                 reciprocal lattice vectors
     7.456888280  0.000000000  0.000000000     0.134104195  0.000000000  0.000000000
     0.000000000  7.673428120  0.000000000     0.000000000  0.130319850  0.000000000
     0.000000000  0.000000000 10.832425340     0.000000000  0.000000000  0.092315430

  length of vectors
     7.456888280  7.673428120 10.832425340     0.134104195  0.130319850  0.092315430


 
 k-points in units of 2pi/SCALE and weight: Kpoints from vasprun.xml                
   0.01676302  0.01628998  0.02307886       0.250
   0.05028907  0.01628998  0.02307886       0.250
   0.01676302  0.04886994  0.02307886       0.250
   0.05028907  0.04886994  0.02307886       0.250
 
 k-points in reciprocal lattice and weights: Kpoints from vasprun.xml                
   0.12500000  0.12500000  0.25000000       0.250
   0.37500000  0.12500000  0.25000000       0.250
   0.12500000  0.37500000  0.25000000       0.250
   0.37500000  0.37500000  0.25000000       0.250
 
 position of ions in fractional coordinates (direct lattice) 
   0.02186500  0.50612853  0.74444298
   0.20337003  0.75003681  0.01408879
   0.21251414  0.74437066  0.47568308
   0.28748586  0.25562934  0.97568308
   0.29662997  0.24996319  0.51408879
   0.47813500  0.49387147  0.24444298
   0.52186500  0.99387147  0.25555702
   0.70337003  0.74996319  0.98591121
   0.71251414  0.75562934  0.52431692
   0.78748586  0.24437066  0.02431692
   0.79662997  0.25003681  0.48591121
   0.97813500  0.00612853  0.75555702
   0.00536773  0.99796810  0.24952081
   0.49463227  0.00203190  0.74952081
   0.50536773  0.50203190  0.75047919
   0.99463227  0.49796810  0.25047919
   0.01352373  0.26018040  0.87822206
   0.03667701  0.24547373  0.60984652
   0.07649543  0.75188603  0.24109104
   0.14793537  0.04535641  0.10291492
   0.18939307  0.46862091  0.11881277
   0.20091427  0.03648558  0.36944169
   0.21160421  0.45909188  0.36962084
   0.28839579  0.54090812  0.86962084
   0.29908573  0.96351442  0.86944169
   0.31060693  0.53137909  0.61881277
   0.35206463  0.95464359  0.60291492
   0.42350457  0.24811397  0.74109104
   0.46332299  0.75452627  0.10984652
   0.48647627  0.73981960  0.37822206
   0.51352373  0.23981960  0.12177794
   0.53667701  0.25452627  0.39015348
   0.57649543  0.74811397  0.75890896
   0.64793537  0.45464359  0.89708508
   0.68939307  0.03137909  0.88118723
   0.70091427  0.46351442  0.63055831
   0.71160421  0.04090812  0.63037916
   0.78839579  0.95909188  0.13037916
   0.79908573  0.53648558  0.13055831
   0.81060693  0.96862091  0.38118723
   0.85206463  0.54535641  0.39708508
   0.92350457  0.25188603  0.25890896
   0.96332299  0.74547373  0.89015348
   0.98647627  0.76018040  0.62177794
 
 position of ions in cartesian coordinates  (Angst):
   0.16304486  3.88374089  8.06412300
   1.51650759  5.75535355  0.15261577
   1.58469420  5.71187475  5.15280145
   2.14374994  1.96155337 10.56901412
   2.21193655  1.91807457  5.56882844
   3.56539928  3.78968723  2.64791033
   3.89148900  7.62640129  2.76830234
   5.24495173  5.75478863 10.67980957
   5.31313834  5.79826743  5.67962389
   5.87219408  1.87516069  0.26341122
   5.94038069  1.91863949  5.26359690
   7.29384342  0.04702683  8.18451501
   0.04002656  7.65783648  2.70291555
   3.68841758  0.01559164  8.11912822
   3.76847070  3.85230570  8.12950979
   7.41686172  3.82112242  2.71329712
   0.10084494  1.99647560  9.51327490
   0.27349637  1.88362502  6.60611690
   0.57041788  5.76954341  2.61160069
   1.10313753  0.34803915  1.11481819
   1.41228296  3.59592887  1.28703046
   1.49819527  0.27996948  4.00194952
   1.57790895  3.52280854  4.00389015
   2.15053519  4.15061958  9.42010282
   2.23024887  7.39345864  9.41816219
   2.31616118  4.07749925  6.70324313
   2.62530661  7.32538897  6.53103086
   3.15802626  1.90388471  8.02781336
   3.45494777  5.78980310  1.18990423
   3.62759920  5.67695252  4.09706223
   3.82928908  1.84023846  1.31915044
   4.00194051  1.95308904  4.22630844
   4.29886202  5.74059877  8.22082465
   4.83158167  3.48867491  9.71760715
   5.14072710  0.24078519  9.54539488
   5.22663941  3.55674458  6.83047582
   5.30635309  0.31390552  6.82853519
   5.87897933  7.35952260  1.41232252
   5.95869301  4.11668354  1.41426315
   6.04460532  7.43264293  4.12918221
   6.35375075  4.18475321  4.30139448
   6.88647040  1.93282935  2.80461198
   7.18339191  5.72033908  9.64252111
   7.35604334  5.83318966  6.73536311
 


--------------------------------------------------------------------------------------------------------


 k-point   1 :   0.1250 0.1250 0.2500  plane waves:   16680
 k-point   2 :   0.3750 0.1250 0.2500  plane waves:   16697
 k-point   3 :   0.1250 0.3750 0.2500  plane waves:   16678
 k-point   4 :   0.3750 0.3750 0.2500  plane waves:   16703

 maximum and minimum number of plane-waves per node :     16703    16678

 maximum number of plane-waves:     16703
 maximum index in each direction: 
   IXMAX=   13   IYMAX=   14   IZMAX=   19
   IXMIN=  -14   IYMIN=  -14   IZMIN=  -20


 serial   3D FFT for wavefunctions
 parallel 3D FFT for charge:
    minimum data exchange during FFTs selected (reduces bandwidth)


 total amount of memory used by VASP MPI-rank0   340195. kBytes
=======================================================================

   base      :      30000. kBytes
   nonlr-proj:      43621. kBytes
   fftplans  :      20294. kBytes
   grid      :      72844. kBytes
   one-center:       4325. kBytes
   wavefun   :     169111. kBytes
 
     INWAV:  cpu time      0.0002: real time      0.0005
 Broyden mixing: mesh for mixing (old mesh)
   NGX = 27   NGY = 29   NGZ = 41
  (NGX  =112   NGY  =120   NGZ  =168)
  gives a total of  32103 points

 initial charge density was supplied:
 charge density of overlapping atoms calculated
 number of electron     416.0000000 magnetization     103.2000000
 keeping initial charge density in first step


--------------------------------------------------------------------------------------------------------


 Maximum index for non-local projection operator          7990
 Maximum index for augmentation-charges          6823 (set IRDMAX)


--------------------------------------------------------------------------------------------------------


 First call to EWALD:  gamma=   0.208
 Maximum number of real-space cells 3x 3x 2
 Maximum number of reciprocal cells 2x 3x 3

    FEWALD:  cpu time      0.0024: real time      0.0024


--------------------------------------- Iteration      1(   1)  ---------------------------------------


    POTLOK:  cpu time      0.1613: real time      0.2431
    SETDIJ:  cpu time      0.0600: real time      0.0601
     EDDAV:  cpu time      2.7574: real time      2.7637
       DOS:  cpu time      0.0009: real time      0.0009
    --------------------------------------------
      LOOP:  cpu time      2.9796: real time      3.0678

 eigenvalue-minimisations  :  5968
 total energy-change (2. order) : 0.8662966E+04  (-0.9667714E+04)
 number of electron     416.0000000 magnetization     103.2000000
 augmentation part      416.0000000 magnetization     103.2000000

 Free energy of the ion-electron system (eV)
  ---------------------------------------------------
  alpha Z        PSCENC =      3402.22880359
  Ewald energy   TEWEN  =    -37051.67473892
  -Hartree energ DENC   =    -11426.19985093
  -exchange      EXHF   =         0.00000000
  -V(xc)+E(xc)   XCENC  =      1911.15571201
  PAW double counting   =     39621.25137395   -41333.72970171
  entropy T*S    EENTRO =        -0.08984725
  eigenvalues    EBANDS =      5822.75460565
  atomic energy  EATOM  =     47717.26993056
  Solvation  Ediel_sol  =         0.00000000
  ---------------------------------------------------
  free energy    TOTEN  =      8662.96628694 eV

  energy without entropy =     8663.05613419  energy(sigma->0) =     8663.01121057


--------------------------------------------------------------------------------------------------------




--------------------------------------- Iteration      1(   2)  ---------------------------------------


     EDDAV:  cpu time      2.4175: real time      2.4199
       DOS:  cpu time      0.0008: real time      0.0008
    --------------------------------------------
      LOOP:  cpu time      2.4183: real time      2.4207

 eigenvalue-minimisations  :  5160
 total energy-change (2. order) :-0.5597944E+04  (-0.4730642E+04)
 number of electron     416.0000000 magnetization     103.2000000
 augmentation part      416.0000000 magnetization     103.2000000

 Free energy of the ion-electron system (eV)
  ---------------------------------------------------
  alpha Z        PSCENC =      3402.22880359
  Ewald energy   TEWEN  =    -37051.67473892
  -Hartree energ DENC   =    -11426.19985093
  -exchange      EXHF   =         0.00000000
  -V(xc)+E(xc)   XCENC  =      1911.15571201
  PAW double counting   =     39621.25137395   -41333.72970171
  entropy T*S    EENTRO =        -0.21256450
  eigenvalues    EBANDS =       224.93291062
  atomic energy  EATOM  =     47717.26993056
  Solvation  Ediel_sol  =         0.00000000
  ---------------------------------------------------
  free energy    TOTEN  =      3065.02187466 eV

  energy without entropy =     3065.23443917  energy(sigma->0) =     3065.12815691


--------------------------------------------------------------------------------------------------------




--------------------------------------- Iteration      1(   3)  ---------------------------------------


     EDDAV:  cpu time      2.3235: real time      2.3261
       DOS:  cpu time      0.0010: real time      0.0010
    --------------------------------------------
      LOOP:  cpu time      2.3245: real time      2.3270

 eigenvalue-minimisations  :  4880
 total energy-change (2. order) :-0.2470376E+04  (-0.1894255E+04)
 number of electron     416.0000000 magnetization     103.2000000
 augmentation part      416.0000000 magnetization     103.2000000

 Free energy of the ion-electron system (eV)
  ---------------------------------------------------
  alpha Z        PSCENC =      3402.22880359
  Ewald energy   TEWEN  =    -37051.67473892
  -Hartree energ DENC   =    -11426.19985093
  -exchange      EXHF   =         0.00000000
  -V(xc)+E(xc)   XCENC  =      1911.15571201
  PAW double counting   =     39621.25137395   -41333.72970171
  entropy T*S    EENTRO =        -0.26164427
  eigenvalues    EBANDS =     -2245.39403288
  atomic energy  EATOM  =     47717.26993056
  Solvation  Ediel_sol  =         0.00000000
  ---------------------------------------------------
  free energy    TOTEN  =       594.64585139 eV

  energy without entropy =      594.90749567  energy(sigma->0) =      594.77667353


--------------------------------------------------------------------------------------------------------




--------------------------------------- Iteration      1(   4)  ---------------------------------------


     EDDAV:  cpu time      3.0265: real time      3.0287
       DOS:  cpu time      0.0010: real time      0.0010
    --------------------------------------------
      LOOP:  cpu time      3.0275: real time      3.0298

 eigenvalue-minimisations  :  6888
 total energy-change (2. order) :-0.9438297E+03  (-0.8360643E+03)
 number of electron     416.0000000 magnetization     103.2000000
 augmentation part      416.0000000 magnetization     103.2000000

 Free energy of the ion-electron system (eV)
  ---------------------------------------------------
  alpha Z        PSCENC =      3402.22880359
  Ewald energy   TEWEN  =    -37051.67473892
  -Hartree energ DENC   =    -11426.19985093
  -exchange      EXHF   =         0.00000000
  -V(xc)+E(xc)   XCENC  =      1911.15571201
  PAW double counting   =     39621.25137395   -41333.72970171
  entropy T*S    EENTRO =        -0.54115396
  eigenvalues    EBANDS =     -3188.94425913
  atomic energy  EATOM  =     47717.26993056
  Solvation  Ediel_sol  =         0.00000000
  ---------------------------------------------------
  free energy    TOTEN  =      -349.18388454 eV

  energy without entropy =     -348.64273058  energy(sigma->0) =     -348.91330756


--------------------------------------------------------------------------------------------------------




--------------------------------------- Iteration      1(   5)  ---------------------------------------


     EDDAV:  cpu time      3.1733: real time      3.1761
       DOS:  cpu time      0.0010: real time      0.0010
    CHARGE:  cpu time      0.1345: real time      0.1346
    MIXING:  cpu time      0.0047: real time      0.0047
    --------------------------------------------
      LOOP:  cpu time      3.3135: real time      3.3164

 eigenvalue-minimisations  :  7368
 total energy-change (2. order) :-0.1448845E+03  (-0.1390705E+03)
 number of electron     416.0000024 magnetization      90.6314659
 augmentation part       89.2480015 magnetization      78.7859477

 Broyden mixing:
  rms(total) = 0.11010E+02    rms(broyden)= 0.11010E+02
  rms(prec ) = 0.12353E+02
  weight for this iteration     100.00

 Free energy of the ion-electron system (eV)
  ---------------------------------------------------
  alpha Z        PSCENC =      3402.22880359
  Ewald energy   TEWEN  =    -37051.67473892
  -Hartree energ DENC   =    -11426.19985093
  -exchange      EXHF   =         0.00000000
  -V(xc)+E(xc)   XCENC  =      1911.15571201
  PAW double counting   =     39621.25137395   -41333.72970171
  entropy T*S    EENTRO =        -2.07474782
  eigenvalues    EBANDS =     -3332.29516180
  atomic energy  EATOM  =     47717.26993056
  Solvation  Ediel_sol  =         0.00000000
  ---------------------------------------------------
  free energy    TOTEN  =      -494.06838107 eV

  energy without entropy =     -491.99363325  energy(sigma->0) =     -493.03100716


--------------------------------------------------------------------------------------------------------




--------------------------------------- Iteration      1(   6)  ---------------------------------------


    POTLOK:  cpu time      0.0131: real time      0.0141
    SETDIJ:  cpu time      0.0591: real time      0.0592
    EDDIAG:  cpu time      0.1918: real time      0.1919
  RMM-DIIS:  cpu time      1.5181: real time      1.5202
    ORTHCH:  cpu time      0.0771: real time      0.0772
       DOS:  cpu time      0.0011: real time      0.0011
    CHARGE:  cpu time      0.1311: real time      0.1312
    MIXING:  cpu time      0.0052: real time      0.0078
    --------------------------------------------
      LOOP:  cpu time      1.9966: real time      2.0025

 eigenvalue-minimisations  :  6588
 total energy-change (2. order) : 0.8760064E+01  (-0.6674621E+02)
 number of electron     416.0000016 magnetization      85.7836258
 augmentation part      131.6925114 magnetization      80.3314334

 Broyden mixing:
  rms(total) = 0.17256E+02    rms(broyden)= 0.17256E+02
  rms(prec ) = 0.21143E+02
  weight for this iteration     100.00

 eigenvalues of (default mixing * dielectric matrix)
  average eigenvalue GAMMA=   0.2718
  0.2718

 Free energy of the ion-electron system (eV)
  ---------------------------------------------------
  alpha Z        PSCENC =      3402.22880359
  Ewald energy   TEWEN  =    -37051.67473892
  -Hartree energ DENC   =    -11100.54098145
  -exchange      EXHF   =         0.00000000
  -V(xc)+E(xc)   XCENC  =      1931.78173597
  PAW double counting   =     41934.83466560   -43465.17905351
  entropy T*S    EENTRO =        -1.59848630
  eigenvalues    EBANDS =     -3852.43019216
  atomic energy  EATOM  =     47717.26993056
  Solvation  Ediel_sol  =         0.00000000
  ---------------------------------------------------
  free energy    TOTEN  =      -485.30831662 eV

  energy without entropy =     -483.70983032  energy(sigma->0) =     -484.50907347


--------------------------------------------------------------------------------------------------------




--------------------------------------- Iteration      1(   7)  ---------------------------------------


    POTLOK:  cpu time      0.0127: real time      0.0130
    SETDIJ:  cpu time      0.0588: real time      0.0588
    EDDIAG:  cpu time      0.1906: real time      0.1906
  RMM-DIIS:  cpu time      1.5297: real time      1.5304
    ORTHCH:  cpu time      0.0770: real time      0.0771
       DOS:  cpu time      0.0010: real time      0.0010
    CHARGE:  cpu time      0.1262: real time      0.1262
    MIXING:  cpu time      0.0049: real time      0.0050
    --------------------------------------------
      LOOP:  cpu time      2.0009: real time      2.0022

 eigenvalue-minimisations  :  6994
 total energy-change (2. order) :-0.1336255E+03  (-0.2144142E+02)
 number of electron     416.0000023 magnetization      81.2425764
 augmentation part       86.6806934 magnetization      74.0281594

 Broyden mixing:
  rms(total) = 0.12799E+02    rms(broyden)= 0.12798E+02
  rms(prec ) = 0.17320E+02
  weight for this iteration     100.00

 eigenvalues of (default mixing * dielectric matrix)
  average eigenvalue GAMMA=   0.2799
  0.2799  0.2799

 Free energy of the ion-electron system (eV)
  ---------------------------------------------------
  alpha Z        PSCENC =      3402.22880359
  Ewald energy   TEWEN  =    -37051.67473892
  -Hartree energ DENC   =    -11522.76949592
  -exchange      EXHF   =         0.00000000
  -V(xc)+E(xc)   XCENC  =      1931.87712510
  PAW double counting   =     43480.20916359   -45304.25917993
  entropy T*S    EENTRO =        -1.47930537
  eigenvalues    EBANDS =     -3270.33611284
  atomic energy  EATOM  =     47717.26993056
  Solvation  Ediel_sol  =         0.00000000
  ---------------------------------------------------
  free energy    TOTEN  =      -618.93381014 eV

  energy without entropy =     -617.45450477  energy(sigma->0) =     -618.19415745


--------------------------------------------------------------------------------------------------------




--------------------------------------- Iteration      1(   8)  ---------------------------------------


    POTLOK:  cpu time      0.0127: real time      0.0131
    SETDIJ:  cpu time      0.0589: real time      0.0590
    EDDIAG:  cpu time      0.1907: real time      0.1908
  RMM-DIIS:  cpu time      1.5840: real time      1.5850
    ORTHCH:  cpu time      0.0770: real time      0.0770
       DOS:  cpu time      0.0010: real time      0.0010
    CHARGE:  cpu time      0.1279: real time      0.1279
    MIXING:  cpu time      0.0049: real time      0.0049
    --------------------------------------------
      LOOP:  cpu time      2.0571: real time      2.0588

 eigenvalue-minimisations  :  7210
 total energy-change (2. order) : 0.1319557E+03  (-0.8009382E+01)
 number of electron     416.0000016 magnetization      74.6290335
 augmentation part       83.5823133 magnetization      68.8969173

 Broyden mixing:
  rms(total) = 0.19669E+02    rms(broyden)= 0.19669E+02
  rms(prec ) = 0.26788E+02
  weight for this iteration     100.00

 eigenvalues of (default mixing * dielectric matrix)
  average eigenvalue GAMMA=   0.2542
  0.3339  0.3339  0.0949

 Free energy of the ion-electron system (eV)
  ---------------------------------------------------
  alpha Z        PSCENC =      3402.22880359
  Ewald energy   TEWEN  =    -37051.67473892
  -Hartree energ DENC   =    -11491.00717334
  -exchange      EXHF   =         0.00000000
  -V(xc)+E(xc)   XCENC  =      1926.99731385
  PAW double counting   =     44026.20319174   -45858.21562250
  entropy T*S    EENTRO =        -0.97447173
  eigenvalues    EBANDS =     -3157.80534285
  atomic energy  EATOM  =     47717.26993056
  Solvation  Ediel_sol  =         0.00000000
  ---------------------------------------------------
  free energy    TOTEN  =      -486.97810961 eV

  energy without entropy =     -486.00363787  energy(sigma->0) =     -486.49087374


--------------------------------------------------------------------------------------------------------




--------------------------------------- Iteration      1(   9)  ---------------------------------------


    POTLOK:  cpu time      0.0127: real time      0.0132
    SETDIJ:  cpu time      0.0587: real time      0.0587
    EDDIAG:  cpu time      0.1911: real time      0.1912
  RMM-DIIS:  cpu time      1.5343: real time      1.5352
    ORTHCH:  cpu time      0.0771: real time      0.0771
       DOS:  cpu time      0.0010: real time      0.0010
    CHARGE:  cpu time      0.1258: real time      0.1258
    MIXING:  cpu time      0.0051: real time      0.0051
    --------------------------------------------
      LOOP:  cpu time      2.0057: real time      2.0074

 eigenvalue-minimisations  :  6963
 total energy-change (2. order) : 0.3028821E+02  (-0.6799008E+01)
 number of electron     416.0000015 magnetization      68.2260365
 augmentation part       92.1668519 magnetization      64.4295060

 Broyden mixing:
  rms(total) = 0.12420E+02    rms(broyden)= 0.12420E+02
  rms(prec ) = 0.17865E+02
  weight for this iteration     100.00

 eigenvalues of (default mixing * dielectric matrix)
  average eigenvalue GAMMA=   0.3030
  0.4681  0.4681  0.2077  0.0680

 Free energy of the ion-electron system (eV)
  ---------------------------------------------------
  alpha Z        PSCENC =      3402.22880359
  Ewald energy   TEWEN  =    -37051.67473892
  -Hartree energ DENC   =    -11377.16806615
  -exchange      EXHF   =         0.00000000
  -V(xc)+E(xc)   XCENC  =      1915.38528483
  PAW double counting   =     44378.76345953   -46164.95980953
  entropy T*S    EENTRO =        -1.31749955
  eigenvalues    EBANDS =     -3275.21726684
  atomic energy  EATOM  =     47717.26993056
  Solvation  Ediel_sol  =         0.00000000
  ---------------------------------------------------
  free energy    TOTEN  =      -456.68990249 eV

  energy without entropy =     -455.37240294  energy(sigma->0) =     -456.03115271


--------------------------------------------------------------------------------------------------------




--------------------------------------- Iteration      1(  10)  ---------------------------------------


    POTLOK:  cpu time      0.0126: real time      0.0133
    SETDIJ:  cpu time      0.0589: real time      0.0589
    EDDIAG:  cpu time      0.1911: real time      0.1912
  RMM-DIIS:  cpu time      1.5607: real time      1.5616
    ORTHCH:  cpu time      0.0773: real time      0.0773
       DOS:  cpu time      0.0010: real time      0.0010
    CHARGE:  cpu time      0.1271: real time      0.1271
    MIXING:  cpu time      0.0053: real time      0.0053
    --------------------------------------------
      LOOP:  cpu time      2.0340: real time      2.0357

 eigenvalue-minimisations  :  7072
 total energy-change (2. order) :-0.3787935E+02  (-0.4265353E+01)
 number of electron     416.0000048 magnetization      63.6944741
 augmentation part       92.1013329 magnetization      61.5245074

 Broyden mixing:
  rms(total) = 0.17599E+02    rms(broyden)= 0.17599E+02
  rms(prec ) = 0.23873E+02
  weight for this iteration     100.00

 eigenvalues of (default mixing * dielectric matrix)
  average eigenvalue GAMMA=   0.2811
  0.4844  0.4844  0.2509  0.1287  0.0568

 Free energy of the ion-electron system (eV)
  ---------------------------------------------------
  alpha Z        PSCENC =      3402.22880359
  Ewald energy   TEWEN  =    -37051.67473892
  -Hartree energ DENC   =    -11355.43574329
  -exchange      EXHF   =         0.00000000
  -V(xc)+E(xc)   XCENC  =      1910.77240399
  PAW double counting   =     44883.18005138   -46666.26591397
  entropy T*S    EENTRO =        -1.33666836
  eigenvalues    EBANDS =     -3333.30737250
  atomic energy  EATOM  =     47717.26993056
  Solvation  Ediel_sol  =         0.00000000
  ---------------------------------------------------
  free energy    TOTEN  =      -494.56924751 eV

  energy without entropy =     -493.23257916  energy(sigma->0) =     -493.90091334


--------------------------------------------------------------------------------------------------------




--------------------------------------- Iteration      1(  11)  ---------------------------------------


    POTLOK:  cpu time      0.0126: real time      0.0132
    SETDIJ:  cpu time      0.0588: real time      0.0589
    EDDIAG:  cpu time      0.1912: real time      0.1913
  RMM-DIIS:  cpu time      1.5455: real time      1.5466
    ORTHCH:  cpu time      0.0770: real time      0.0770
       DOS:  cpu time      0.0011: real time      0.0011
    CHARGE:  cpu time      0.1269: real time      0.1269
    MIXING:  cpu time      0.0055: real time      0.0055
    --------------------------------------------
      LOOP:  cpu time      2.0186: real time      2.0205

 eigenvalue-minimisations  :  7037
 total energy-change (2. order) : 0.7960472E+02  (-0.2883441E+01)
 number of electron     416.0000026 magnetization      47.8298501
 augmentation part       90.9886935 magnetization      45.2032923

 Broyden mixing:
  rms(total) = 0.14410E+02    rms(broyden)= 0.14410E+02
  rms(prec ) = 0.21400E+02
  weight for this iteration     100.00

 eigenvalues of (default mixing * dielectric matrix)
  average eigenvalue GAMMA=   0.3868
  1.0158  0.4613  0.4613  0.2546  0.0641  0.0641

 Free energy of the ion-electron system (eV)
  ---------------------------------------------------
  alpha Z        PSCENC =      3402.22880359
  Ewald energy   TEWEN  =    -37051.67473892
  -Hartree energ DENC   =    -11380.59220651
  -exchange      EXHF   =         0.00000000
  -V(xc)+E(xc)   XCENC  =      1907.83045101
  PAW double counting   =     45231.37771998   -47036.29829735
  entropy T*S    EENTRO =        -1.60957348
  eigenvalues    EBANDS =     -3203.49662098
  atomic energy  EATOM  =     47717.26993056
  Solvation  Ediel_sol  =         0.00000000
  ---------------------------------------------------
  free energy    TOTEN  =      -414.96453211 eV

  energy without entropy =     -413.35495863  energy(sigma->0) =     -414.15974537


--------------------------------------------------------------------------------------------------------




--------------------------------------- Iteration      1(  12)  ---------------------------------------


    POTLOK:  cpu time      0.0123: real time      0.0132
    SETDIJ:  cpu time      0.0593: real time      0.0594
    EDDIAG:  cpu time      0.1909: real time      0.1911
  RMM-DIIS:  cpu time      1.7211: real time      1.7221
    ORTHCH:  cpu time      0.0769: real time      0.0769
       DOS:  cpu time      0.0011: real time      0.0011
    CHARGE:  cpu time      0.1288: real time      0.1289
    MIXING:  cpu time      0.0056: real time      0.0056
    --------------------------------------------
      LOOP:  cpu time      2.1961: real time      2.1983

 eigenvalue-minimisations  :  7788
 total energy-change (2. order) :-0.3774334E+02  (-0.5870329E+01)
 number of electron     416.0000003 magnetization      39.1888714
 augmentation part       92.0605513 magnetization      37.0298436

 Broyden mixing:
  rms(total) = 0.14991E+02    rms(broyden)= 0.14991E+02
  rms(prec ) = 0.22149E+02
  weight for this iteration     100.00

 eigenvalues of (default mixing * dielectric matrix)
  average eigenvalue GAMMA=   0.4448
  1.4267  0.5776  0.5776  0.2294  0.1628  0.0695  0.0695

 Free energy of the ion-electron system (eV)
  ---------------------------------------------------
  alpha Z        PSCENC =      3402.22880359
  Ewald energy   TEWEN  =    -37051.67473892
  -Hartree energ DENC   =    -11334.61668634
  -exchange      EXHF   =         0.00000000
  -V(xc)+E(xc)   XCENC  =      1911.59672878
  PAW double counting   =     46527.35411874   -48317.45334210
  entropy T*S    EENTRO =        -1.25727726
  eigenvalues    EBANDS =     -3306.15540973
  atomic energy  EATOM  =     47717.26993056
  Solvation  Ediel_sol  =         0.00000000
  ---------------------------------------------------
  free energy    TOTEN  =      -452.70787268 eV

  energy without entropy =     -451.45059542  energy(sigma->0) =     -452.07923405


--------------------------------------------------------------------------------------------------------




--------------------------------------- Iteration      1(  13)  ---------------------------------------


    POTLOK:  cpu time      0.0126: real time      0.0130
    SETDIJ:  cpu time      0.0580: real time      0.0580
    EDDIAG:  cpu time      0.1908: real time      0.1908
  RMM-DIIS:  cpu time      1.6037: real time      1.6051
    ORTHCH:  cpu time      0.0771: real time      0.0772
       DOS:  cpu time      0.0011: real time      0.0011
    CHARGE:  cpu time      0.1289: real time      0.1290
    MIXING:  cpu time      0.0058: real time      0.0058
    --------------------------------------------
      LOOP:  cpu time      2.0779: real time      2.0800

 eigenvalue-minimisations  :  7232
 total energy-change (2. order) : 0.4858468E+02  (-0.2289194E+01)
 number of electron     416.0000013 magnetization      38.6294451
 augmentation part       91.5758062 magnetization      34.1434564

 Broyden mixing:
  rms(total) = 0.11706E+02    rms(broyden)= 0.11706E+02
  rms(prec ) = 0.17115E+02
  weight for this iteration     100.00

 eigenvalues of (default mixing * dielectric matrix)
  average eigenvalue GAMMA=   0.4528
  1.4276  0.6226  0.6226  0.4005  0.2378  0.1724  0.0694  0.0694

 Free energy of the ion-electron system (eV)
  ---------------------------------------------------
  alpha Z        PSCENC =      3402.22880359
  Ewald energy   TEWEN  =    -37051.67473892
  -Hartree energ DENC   =    -11319.63560076
  -exchange      EXHF   =         0.00000000
  -V(xc)+E(xc)   XCENC  =      1901.96969452
  PAW double counting   =     46685.17143322   -48465.00584761
  entropy T*S    EENTRO =        -1.11242315
  eigenvalues    EBANDS =     -3273.33444155
  atomic energy  EATOM  =     47717.26993056
  Solvation  Ediel_sol  =         0.00000000
  ---------------------------------------------------
  free energy    TOTEN  =      -404.12319010 eV

  energy without entropy =     -403.01076695  energy(sigma->0) =     -403.56697852


--------------------------------------------------------------------------------------------------------




--------------------------------------- Iteration      1(  14)  ---------------------------------------


    POTLOK:  cpu time      0.0127: real time      0.0132
    SETDIJ:  cpu time      0.0578: real time      0.0578
    EDDIAG:  cpu time      0.1908: real time      0.1909
  RMM-DIIS:  cpu time      1.5807: real time      1.5817
    ORTHCH:  cpu time      0.0769: real time      0.0770
       DOS:  cpu time      0.0011: real time      0.0011
    CHARGE:  cpu time      0.1276: real time      0.1277
    MIXING:  cpu time      0.0060: real time      0.0060
    --------------------------------------------
      LOOP:  cpu time      2.0536: real time      2.0552

 eigenvalue-minimisations  :  7192
 total energy-change (2. order) : 0.2092792E+02  (-0.1283756E+01)
 number of electron     416.0000024 magnetization      39.2201975
 augmentation part       92.1100590 magnetization      33.4318598

 Broyden mixing:
  rms(total) = 0.78579E+01    rms(broyden)= 0.78579E+01
  rms(prec ) = 0.80574E+01
  weight for this iteration     100.00

 eigenvalues of (default mixing * dielectric matrix)
  average eigenvalue GAMMA=   0.4086
  1.4532  0.6326  0.6326  0.3675  0.2387  0.1704  0.0695  0.0695  0.0431

 Free energy of the ion-electron system (eV)
  ---------------------------------------------------
  alpha Z        PSCENC =      3402.22880359
  Ewald energy   TEWEN  =    -37051.67473892
  -Hartree energ DENC   =    -11278.27681070
  -exchange      EXHF   =         0.00000000
  -V(xc)+E(xc)   XCENC  =      1897.63573340
  PAW double counting   =     46608.32845703   -48361.76589353
  entropy T*S    EENTRO =        -2.57344339
  eigenvalues    EBANDS =     -3314.36730651
  atomic energy  EATOM  =     47717.26993056
  Solvation  Ediel_sol  =         0.00000000
  ---------------------------------------------------
  free energy    TOTEN  =      -383.19526847 eV

  energy without entropy =     -380.62182508  energy(sigma->0) =     -381.90854677


--------------------------------------------------------------------------------------------------------




--------------------------------------- Iteration      1(  15)  ---------------------------------------


    POTLOK:  cpu time      0.0122: real time      0.0129
    SETDIJ:  cpu time      0.0579: real time      0.0579
    EDDIAG:  cpu time      0.1910: real time      0.1911
  RMM-DIIS:  cpu time      1.8566: real time      1.8576
    ORTHCH:  cpu time      0.0770: real time      0.0770
       DOS:  cpu time      0.0011: real time      0.0011
    CHARGE:  cpu time      0.1289: real time      0.1289
    MIXING:  cpu time      0.0062: real time      0.0062
    --------------------------------------------
      LOOP:  cpu time      2.3308: real time      2.3326

 eigenvalue-minimisations  :  8399
 total energy-change (2. order) :-0.2607466E+01  (-0.3685512E+00)
 number of electron     416.0000021 magnetization      39.6011432
 augmentation part       91.6587173 magnetization      33.6286842

 Broyden mixing:
  rms(total) = 0.83119E+01    rms(broyden)= 0.83118E+01
  rms(prec ) = 0.84433E+01
  weight for this iteration     100.00

 eigenvalues of (default mixing * dielectric matrix)
  average eigenvalue GAMMA=   0.3820
  1.4318  0.6150  0.6150  0.4048  0.2391  0.1741  0.0694  0.0694  0.1008  0.1008

 Free energy of the ion-electron system (eV)
  ---------------------------------------------------
  alpha Z        PSCENC =      3402.22880359
  Ewald energy   TEWEN  =    -37051.67473892
  -Hartree energ DENC   =    -11278.23974704
  -exchange      EXHF   =         0.00000000
  -V(xc)+E(xc)   XCENC  =      1897.80808535
  PAW double counting   =     46629.08049532   -48383.41331914
  entropy T*S    EENTRO =        -2.08568510
  eigenvalues    EBANDS =     -3316.77655880
  atomic energy  EATOM  =     47717.26993056
  Solvation  Ediel_sol  =         0.00000000
  ---------------------------------------------------
  free energy    TOTEN  =      -385.80273419 eV

  energy without entropy =     -383.71704909  energy(sigma->0) =     -384.75989164


--------------------------------------------------------------------------------------------------------




--------------------------------------- Iteration      1(  16)  ---------------------------------------


    POTLOK:  cpu time      0.0128: real time      0.0135
    SETDIJ:  cpu time      0.0579: real time      0.0580
    EDDIAG:  cpu time      0.1909: real time      0.1910
  RMM-DIIS:  cpu time      1.8639: real time      1.8649
    ORTHCH:  cpu time      0.0772: real time      0.0772
       DOS:  cpu time      0.0010: real time      0.0010
    CHARGE:  cpu time      0.1283: real time      0.1284
    MIXING:  cpu time      0.0063: real time      0.0063
    --------------------------------------------
      LOOP:  cpu time      2.3384: real time      2.3403

 eigenvalue-minimisations  :  8446
 total energy-change (2. order) :-0.1453736E+01  (-0.1497482E+00)
 number of electron     416.0000025 magnetization      40.1443658
 augmentation part       91.6158288 magnetization      34.5502416

 Broyden mixing:
  rms(total) = 0.76071E+01    rms(broyden)= 0.76070E+01
  rms(prec ) = 0.77660E+01
  weight for this iteration     100.00

 eigenvalues of (default mixing * dielectric matrix)
  average eigenvalue GAMMA=   0.3565
  1.4236  0.6133  0.6133  0.4092  0.2396  0.1727  0.1280  0.1280  0.0694  0.0694
  0.0550

 Free energy of the ion-electron system (eV)
  ---------------------------------------------------
  alpha Z        PSCENC =      3402.22880359
  Ewald energy   TEWEN  =    -37051.67473892
  -Hartree energ DENC   =    -11278.64400428
  -exchange      EXHF   =         0.00000000
  -V(xc)+E(xc)   XCENC  =      1897.80419250
  PAW double counting   =     46616.45879521   -48369.90392182
  entropy T*S    EENTRO =        -1.70352280
  eigenvalues    EBANDS =     -3319.09200377
  atomic energy  EATOM  =     47717.26993056
  Solvation  Ediel_sol  =         0.00000000
  ---------------------------------------------------
  free energy    TOTEN  =      -387.25646973 eV

  energy without entropy =     -385.55294693  energy(sigma->0) =     -386.40470833


--------------------------------------------------------------------------------------------------------




--------------------------------------- Iteration      1(  17)  ---------------------------------------


    POTLOK:  cpu time      0.0122: real time      0.0133
    SETDIJ:  cpu time      0.0581: real time      0.0581
    EDDIAG:  cpu time      0.1905: real time      0.1905
  RMM-DIIS:  cpu time      1.8479: real time      1.8488
    ORTHCH:  cpu time      0.0769: real time      0.0769
       DOS:  cpu time      0.0010: real time      0.0010
    CHARGE:  cpu time      0.1275: real time      0.1275
    MIXING:  cpu time      0.0065: real time      0.0065
    --------------------------------------------
      LOOP:  cpu time      2.3205: real time      2.3227

 eigenvalue-minimisations  :  8347
 total energy-change (2. order) :-0.4300977E+01  (-0.1521487E+00)
 number of electron     416.0000022 magnetization      40.1217378
 augmentation part       91.3538951 magnetization      35.2351276

 Broyden mixing:
  rms(total) = 0.66842E+01    rms(broyden)= 0.66842E+01
  rms(prec ) = 0.74121E+01
  weight for this iteration     100.00

 eigenvalues of (default mixing * dielectric matrix)
  average eigenvalue GAMMA=   0.3423
  1.4147  0.6217  0.6217  0.3992  0.2399  0.1589  0.1589  0.1715  0.0694  0.0694
  0.0914  0.0914

 Free energy of the ion-electron system (eV)
  ---------------------------------------------------
  alpha Z        PSCENC =      3402.22880359
  Ewald energy   TEWEN  =    -37051.67473892
  -Hartree energ DENC   =    -11279.24165219
  -exchange      EXHF   =         0.00000000
  -V(xc)+E(xc)   XCENC  =      1897.80849695
  PAW double counting   =     46613.21511204   -48363.73476885
  entropy T*S    EENTRO =        -1.81033260
  eigenvalues    EBANDS =     -3325.61829756
  atomic energy  EATOM  =     47717.26993056
  Solvation  Ediel_sol  =         0.00000000
  ---------------------------------------------------
  free energy    TOTEN  =      -391.55744698 eV

  energy without entropy =     -389.74711438  energy(sigma->0) =     -390.65228068


--------------------------------------------------------------------------------------------------------




--------------------------------------- Iteration      1(  18)  ---------------------------------------


    POTLOK:  cpu time      0.0122: real time      0.0131
    SETDIJ:  cpu time      0.0585: real time      0.0585
    EDDIAG:  cpu time      0.1911: real time      0.1912
  RMM-DIIS:  cpu time      1.7915: real time      1.7927
    ORTHCH:  cpu time      0.0768: real time      0.0769
       DOS:  cpu time      0.0010: real time      0.0010
    CHARGE:  cpu time      0.1279: real time      0.1279
    MIXING:  cpu time      0.0066: real time      0.0066
    --------------------------------------------
      LOOP:  cpu time      2.2656: real time      2.2679

 eigenvalue-minimisations  :  8091
 total energy-change (2. order) :-0.3881487E+01  (-0.1561827E+00)
[...]
    EDDIAG:  cpu time      0.1914: real time      0.1914
  RMM-DIIS:  cpu time      1.8187: real time      1.8199
    ORTHCH:  cpu time      0.0770: real time      0.0770
       DOS:  cpu time      0.0007: real time      0.0007
    CHARGE:  cpu time      0.1248: real time      0.1249
    MIXING:  cpu time      0.0170: real time      0.0170
    --------------------------------------------
      LOOP:  cpu time      2.3008: real time      2.3034

 eigenvalue-minimisations  :  8227
 total energy-change (2. order) : 0.2404389E+05  (-0.9128661E+03)
 number of electron     416.0000022 magnetization      58.9005333
 augmentation part       74.1032404 magnetization      64.9451538

 Broyden mixing:
  rms(total) = 0.94935E+02    rms(broyden)= 0.94935E+02
  rms(prec ) = 0.95584E+02
  weight for this iteration     100.00

 eigenvalues of (default mixing * dielectric matrix)
  average eigenvalue GAMMA=   0.5018
  1.1891  1.1891  1.2113  1.0668  1.0668  1.0017  0.7549  0.7549  0.8839  0.7502
  0.7502  0.5159  0.5159  0.7223  0.6668  0.6668  0.6465  0.6465  0.6217  0.6217
  0.5105  0.5105  0.5348  0.5348  0.5249  0.3394  0.3394  0.3700  0.3700  0.4070
  0.4070  0.2676  0.1019  0.1019  0.1812  0.1219  0.0576  0.0576  0.0573  0.0102
  0.0096  0.0096  0.0033  0.0070

 Free energy of the ion-electron system (eV)
  ---------------------------------------------------
  alpha Z        PSCENC =      3402.22880359
  Ewald energy   TEWEN  =    -37051.67473892
  -Hartree energ DENC   =    -11101.48438104
  -exchange      EXHF   =         0.00000000
  -V(xc)+E(xc)   XCENC  =      1917.87085515
  PAW double counting   =     70122.89120376   -71768.61409728
  entropy T*S    EENTRO =        -0.29189967
  eigenvalues    EBANDS =    -12284.39910587
  atomic energy  EATOM  =     47717.26993056
  Solvation  Ediel_sol  =         0.00000000
  ---------------------------------------------------
  free energy    TOTEN  =     -9046.20342973 eV

  energy without entropy =    -9045.91153006  energy(sigma->0) =    -9046.05747989


--------------------------------------------------------------------------------------------------------




--------------------------------------- Iteration      1( 645)  ---------------------------------------


    POTLOK:  cpu time      0.0122: real time      0.0131
    SETDIJ:  cpu time      0.0574: real time      0.0574
    EDDIAG:  cpu time      0.1913: real time      0.1914
  RMM-DIIS:  cpu time      1.8139: real time      1.8147
    ORTHCH:  cpu time      0.0769: real time      0.0769
       DOS:  cpu time      0.0008: real time      0.0008
    CHARGE:  cpu time      0.1243: real time      0.1243
    MIXING:  cpu time      0.0179: real time      0.0179
    --------------------------------------------
      LOOP:  cpu time      2.2946: real time      2.2965

 eigenvalue-minimisations  :  8218
 total energy-change (2. order) :-0.1191672E+05  (-0.9341393E+03)
 number of electron     416.0000021 magnetization      57.8714796
 augmentation part       68.3874291 magnetization      66.7111162

 Broyden mixing:
  rms(total) = 0.10808E+03    rms(broyden)= 0.10808E+03
  rms(prec ) = 0.10868E+03
  weight for this iteration     100.00

 eigenvalues of (default mixing * dielectric matrix)
  average eigenvalue GAMMA=   0.4806
  1.0496  1.0496  1.2229  0.7710  0.7710  0.1906  0.8805  0.8805  0.5643  0.5643
  0.2332  0.2332  0.8308  0.8308  0.6471  0.6471  0.7150  0.7150  0.6912  0.5141
  0.5141  0.5524  0.5524  0.5697  0.5391  0.5391  0.3857  0.3857  0.4159  0.3209
  0.1980  0.0735  0.0735  0.0298  0.0298  0.0130  0.0130  0.0064  0.0064  0.0048

 Free energy of the ion-electron system (eV)
  ---------------------------------------------------
  alpha Z        PSCENC =      3402.22880359
  Ewald energy   TEWEN  =    -37051.67473892
  -Hartree energ DENC   =    -11093.69492325
  -exchange      EXHF   =         0.00000000
  -V(xc)+E(xc)   XCENC  =      1921.59959439
  PAW double counting   =     72999.17836546   -74635.53461612
  entropy T*S    EENTRO =        -0.32979107
  eigenvalues    EBANDS =    -24221.96107156
  atomic energy  EATOM  =     47717.26993056
  Solvation  Ediel_sol  =         0.00000000
  ---------------------------------------------------
  free energy    TOTEN  =    -20962.91844692 eV

  energy without entropy =   -20962.58865585  energy(sigma->0) =   -20962.75355138


--------------------------------------------------------------------------------------------------------




--------------------------------------- Iteration      1( 646)  ---------------------------------------


    POTLOK:  cpu time      0.0128: real time      0.0137
    SETDIJ:  cpu time      0.0580: real time      0.0581
    EDDIAG:  cpu time      0.1914: real time      0.1919
  RMM-DIIS:  cpu time      1.8152: real time      1.8160
    ORTHCH:  cpu time      0.0768: real time      0.0768
       DOS:  cpu time      0.0008: real time      0.0008
    CHARGE:  cpu time      0.1262: real time      0.1263
    MIXING:  cpu time      0.0164: real time      0.0164
    --------------------------------------------
      LOOP:  cpu time      2.2975: real time      2.3000

 eigenvalue-minimisations  :  8220
 total energy-change (2. order) : 0.1995893E+05  (-0.2333882E+03)
 number of electron     416.0000025 magnetization      59.0326212
 augmentation part       90.4893627 magnetization      48.3040046

 Broyden mixing:
  rms(total) = 0.90143E+02    rms(broyden)= 0.90143E+02
  rms(prec ) = 0.90704E+02
  weight for this iteration     100.00

 eigenvalues of (default mixing * dielectric matrix)
  average eigenvalue GAMMA=   0.4695
  1.0366  1.0366  1.2223  0.7742  0.7742  0.8932  0.8932  0.1861  0.5639  0.5639
  0.8346  0.8346  0.2332  0.2332  0.6424  0.6424  0.7140  0.7140  0.6783  0.5136
  0.5136  0.5530  0.5530  0.5696  0.5386  0.5386  0.3810  0.3810  0.4176  0.3231
  0.1970  0.0903  0.0903  0.0315  0.0315  0.0148  0.0148  0.0105  0.0105  0.0022
  0.0027

 Free energy of the ion-electron system (eV)
  ---------------------------------------------------
  alpha Z        PSCENC =      3402.22880359
  Ewald energy   TEWEN  =    -37051.67473892
  -Hartree energ DENC   =    -11248.84396942
  -exchange      EXHF   =         0.00000000
  -V(xc)+E(xc)   XCENC  =      1913.32420727
  PAW double counting   =    128867.32110954  -130579.82634424
  entropy T*S    EENTRO =        -0.36603630
  eigenvalues    EBANDS =     -4023.41955007
  atomic energy  EATOM  =     47717.26993056
  Solvation  Ediel_sol  =         0.00000000
  ---------------------------------------------------
  free energy    TOTEN  =     -1003.98658798 eV

  energy without entropy =    -1003.62055168  energy(sigma->0) =    -1003.80356983


--------------------------------------------------------------------------------------------------------




--------------------------------------- Iteration      1( 647)  ---------------------------------------


    POTLOK:  cpu time      0.0121: real time      0.0134
    SETDIJ:  cpu time      0.0576: real time      0.0576
    EDDIAG:  cpu time      0.1911: real time      0.1912
  RMM-DIIS:  cpu time      1.8272: real time      1.8281
    ORTHCH:  cpu time      0.0768: real time      0.0768
       DOS:  cpu time      0.0007: real time      0.0007
    CHARGE:  cpu time      0.1252: real time      0.1252
    MIXING:  cpu time      0.0167: real time      0.0167
    --------------------------------------------
      LOOP:  cpu time      2.3075: real time      2.3097

 eigenvalue-minimisations  :  8272
 total energy-change (2. order) : 0.5019574E+03  (-0.3782282E+02)
 number of electron     416.0000026 magnetization      49.3912665
 augmentation part       94.7109556 magnetization      46.6069036

 Broyden mixing:
  rms(total) = 0.14249E+02    rms(broyden)= 0.14238E+02
  rms(prec ) = 0.17471E+02
  weight for this iteration     100.00

 eigenvalues of (default mixing * dielectric matrix)
  average eigenvalue GAMMA=   0.4761
  1.0577  1.0577  1.2225  0.7931  0.7931  0.1798  0.9375  0.8282  0.8282  0.5620
  0.5620  0.8117  0.8117  0.2229  0.2229  0.6481  0.6481  0.5312  0.5312  0.7089
  0.7089  0.6745  0.5378  0.5378  0.5524  0.5524  0.5149  0.3756  0.3756  0.3599
  0.3599  0.1886  0.0874  0.0874  0.0268  0.0268  0.0267  0.0072  0.0121  0.0121
  0.0119  0.0019

 Free energy of the ion-electron system (eV)
  ---------------------------------------------------
  alpha Z        PSCENC =      3402.22880359
  Ewald energy   TEWEN  =    -37051.67473892
  -Hartree energ DENC   =    -11233.66548243
  -exchange      EXHF   =         0.00000000
  -V(xc)+E(xc)   XCENC  =      1916.89928310
  PAW double counting   =     62271.23039298   -63953.53945116
  entropy T*S    EENTRO =        -0.16973102
  eigenvalues    EBANDS =     -3570.60816302
  atomic energy  EATOM  =     47717.26993056
  Solvation  Ediel_sol  =         0.00000000
  ---------------------------------------------------
  free energy    TOTEN  =      -502.02915632 eV

  energy without entropy =     -501.85942530  energy(sigma->0) =     -501.94429081


--------------------------------------------------------------------------------------------------------




--------------------------------------- Iteration      1( 648)  ---------------------------------------


    POTLOK:  cpu time      0.0122: real time      0.0132
    SETDIJ:  cpu time      0.0590: real time      0.0591
    EDDIAG:  cpu time      0.1913: real time      0.1913
  RMM-DIIS:  cpu time      1.8207: real time      1.8219
    ORTHCH:  cpu time      0.0770: real time      0.0771
       DOS:  cpu time      0.0007: real time      0.0007
    CHARGE:  cpu time      0.1258: real time      0.1258
    MIXING:  cpu time      0.0174: real time      0.0174
    --------------------------------------------
      LOOP:  cpu time      2.3040: real time      2.3065

 eigenvalue-minimisations  :  8236
 total energy-change (2. order) : 0.7918375E+02  (-0.1473986E+02)
 number of electron     416.0000025 magnetization      45.0200080
 augmentation part       93.0612465 magnetization      43.7227391

 Broyden mixing:
  rms(total) = 0.13306E+02    rms(broyden)= 0.13306E+02
  rms(prec ) = 0.16439E+02
  weight for this iteration     100.00

 eigenvalues of (default mixing * dielectric matrix)
  average eigenvalue GAMMA=   0.4839
  1.0479  1.0479  1.2136  0.2138  0.9907  0.8826  0.8826  0.9021  0.9021  0.6974
  0.6974  0.5206  0.5206  0.7196  0.7196  0.2172  0.2172  0.7236  0.7027  0.5220
  0.5220  0.6589  0.5295  0.5295  0.5659  0.5659  0.5239  0.5239  0.4116  0.4116
  0.4062  0.3109  0.2025  0.0936  0.0936  0.0238  0.0238  0.0274  0.0064  0.0109
  0.0109  0.0136  0.0012

 Free energy of the ion-electron system (eV)
  ---------------------------------------------------
  alpha Z        PSCENC =      3402.22880359
  Ewald energy   TEWEN  =    -37051.67473892
  -Hartree energ DENC   =    -11315.42066957
  -exchange      EXHF   =         0.00000000
  -V(xc)+E(xc)   XCENC  =      1915.19594830
  PAW double counting   =     51050.37139299   -52762.92437041
  entropy T*S    EENTRO =        -0.40921341
  eigenvalues    EBANDS =     -3377.48249091
  atomic energy  EATOM  =     47717.26993056
  Solvation  Ediel_sol  =         0.00000000
  ---------------------------------------------------
  free energy    TOTEN  =      -422.84540778 eV

  energy without entropy =     -422.43619437  energy(sigma->0) =     -422.64080107


--------------------------------------------------------------------------------------------------------




--------------------------------------- Iteration      1( 649)  ---------------------------------------


    POTLOK:  cpu time      0.0121: real time      0.0133
    SETDIJ:  cpu time      0.0579: real time      0.0579
    EDDIAG:  cpu time      0.1912: real time      0.1912
  RMM-DIIS:  cpu time      1.8300: real time      1.8309
    ORTHCH:  cpu time      0.0770: real time      0.0770
       DOS:  cpu time      0.0008: real time      0.0008
    CHARGE:  cpu time      0.1254: real time      0.1254
    MIXING:  cpu time      0.0169: real time      0.0169
    --------------------------------------------
      LOOP:  cpu time      2.3112: real time      2.3134

 eigenvalue-minimisations  :  8272
 total energy-change (2. order) : 0.1924540E+02  (-0.6702170E+01)
 number of electron     416.0000025 magnetization      41.5339593
 augmentation part       93.0042000 magnetization      41.2035217

 Broyden mixing:
  rms(total) = 0.13040E+02    rms(broyden)= 0.13039E+02
  rms(prec ) = 0.16094E+02
  weight for this iteration     100.00

 eigenvalues of (default mixing * dielectric matrix)
  average eigenvalue GAMMA=   0.4981
  1.0877  1.0877  1.2250  1.2250  0.2127  0.8808  0.8808  0.7121  0.7121  0.8814
  0.8814  0.5196  0.5196  0.2083  0.2083  0.7283  0.7283  0.7326  0.7326  0.6970
  0.6362  0.6362  0.5042  0.5042  0.4146  0.4146  0.5326  0.5326  0.5611  0.5611
  0.5145  0.4031  0.3218  0.2161  0.0844  0.0844  0.0346  0.0346  0.0255  0.0122
  0.0122  0.0036  0.0036  0.0048

 Free energy of the ion-electron system (eV)
  ---------------------------------------------------
  alpha Z        PSCENC =      3402.22880359
  Ewald energy   TEWEN  =    -37051.67473892
  -Hartree energ DENC   =    -11327.33730912
  -exchange      EXHF   =         0.00000000
  -V(xc)+E(xc)   XCENC  =      1916.16221555
  PAW double counting   =     51196.59673406   -52900.37540880
  entropy T*S    EENTRO =        -0.43635474
  eigenvalues    EBANDS =     -3356.03388382
  atomic energy  EATOM  =     47717.26993056
  Solvation  Ediel_sol  =         0.00000000
  ---------------------------------------------------
  free energy    TOTEN  =      -403.60001163 eV

  energy without entropy =     -403.16365689  energy(sigma->0) =     -403.38183426


--------------------------------------------------------------------------------------------------------




--------------------------------------- Iteration      1( 650)  ---------------------------------------


    POTLOK:  cpu time      0.0122: real time      0.0132
    SETDIJ:  cpu time      0.0583: real time      0.0584
    EDDIAG:  cpu time      0.1911: real time      0.1912
  RMM-DIIS:  cpu time      1.8163: real time      1.8171
    ORTHCH:  cpu time      0.0771: real time      0.0771
       DOS:  cpu time      0.0007: real time      0.0007
    CHARGE:  cpu time      0.1265: real time      0.1267
    MIXING:  cpu time      0.0177: real time      0.0177
    --------------------------------------------
      LOOP:  cpu time      2.2999: real time      2.3021

 eigenvalue-minimisations  :  8262
 total energy-change (2. order) : 0.8624183E+01  (-0.4985652E+01)
 number of electron     416.0000024 magnetization      35.1849787
 augmentation part       93.3281311 magnetization      35.6405039

 Broyden mixing:
  rms(total) = 0.13037E+02    rms(broyden)= 0.13037E+02
  rms(prec ) = 0.16024E+02
  weight for this iteration     100.00

 eigenvalues of (default mixing * dielectric matrix)
  average eigenvalue GAMMA=   0.5186
  1.3827  1.3827  0.8888  0.8888  0.6731  0.6731  0.3360  0.3360  0.2335  0.2335
  0.0893  0.0893  0.0165  0.0002  0.0013  0.0071  0.0241  0.0241  0.1450  0.8922
  0.8922  0.6802  0.6802  0.8342  0.8215  0.8215  0.5463  0.5463  0.6965  0.6965
  0.6080  0.6080  0.3343  0.3873  0.5116  0.5116  0.5943  0.5943  0.5300  0.5300

 Free energy of the ion-electron system (eV)
  ---------------------------------------------------
  alpha Z        PSCENC =      3402.22880359
  Ewald energy   TEWEN  =    -37051.67473892
  -Hartree energ DENC   =    -11322.03414448
  -exchange      EXHF   =         0.00000000
  -V(xc)+E(xc)   XCENC  =      1918.91188185
  PAW double counting   =     51475.57861831   -53168.67327899
  entropy T*S    EENTRO =        -0.44508090
  eigenvalues    EBANDS =     -3366.13781987
  atomic energy  EATOM  =     47717.26993056
  Solvation  Ediel_sol  =         0.00000000
  ---------------------------------------------------
  free energy    TOTEN  =      -394.97582885 eV

  energy without entropy =     -394.53074795  energy(sigma->0) =     -394.75328840


--------------------------------------------------------------------------------------------------------




--------------------------------------- Iteration      1( 651)  ---------------------------------------


    POTLOK:  cpu time      0.0128: real time      0.0133
    SETDIJ:  cpu time      0.0582: real time      0.0582
    EDDIAG:  cpu time      0.1916: real time      0.1917
  RMM-DIIS:  cpu time      1.8249: real time      1.8258
    ORTHCH:  cpu time      0.0769: real time      0.0769
       DOS:  cpu time      0.0009: real time      0.0009
    CHARGE:  cpu time      0.1251: real time      0.1252
    MIXING:  cpu time      0.0164: real time      0.0164
    --------------------------------------------
      LOOP:  cpu time      2.3067: real time      2.3084

 eigenvalue-minimisations  :  8274
 total energy-change (2. order) : 0.5091444E+02  (-0.1013258E+02)
 number of electron     416.0000016 magnetization      25.4542294
 augmentation part       91.4248276 magnetization      26.5397409

 Broyden mixing:
  rms(total) = 0.10865E+02    rms(broyden)= 0.10865E+02
  rms(prec ) = 0.12788E+02
  weight for this iteration     100.00

 eigenvalues of (default mixing * dielectric matrix)
  average eigenvalue GAMMA=   0.5224
  1.4046  1.4046  0.8895  0.8895  0.6642  0.6642  0.3722  0.3722  0.2322  0.2322
  0.0887  0.0887  0.0145  0.0003  0.0013  0.0066  0.0238  0.0238  0.1508  0.8694
  0.8694  0.8793  0.8793  0.6710  0.6710  0.7935  0.6569  0.6569  0.3252  0.5492
  0.5492  0.3874  0.5173  0.5173  0.6970  0.6481  0.4754  0.5809  0.5809  0.5608
  0.5608

 Free energy of the ion-electron system (eV)
  ---------------------------------------------------
  alpha Z        PSCENC =      3402.22880359
  Ewald energy   TEWEN  =    -37051.67473892
  -Hartree energ DENC   =    -11394.82932602
  -exchange      EXHF   =         0.00000000
  -V(xc)+E(xc)   XCENC  =      1939.16011914
  PAW double counting   =     50690.41810595   -52424.06733282
  entropy T*S    EENTRO =        -0.20268628
  eigenvalues    EBANDS =     -3222.36426291
  atomic energy  EATOM  =     47717.26993056
  Solvation  Ediel_sol  =         0.00000000
  ---------------------------------------------------
  free energy    TOTEN  =      -344.06138772 eV

  energy without entropy =     -343.85870144  energy(sigma->0) =     -343.96004458


--------------------------------------------------------------------------------------------------------




--------------------------------------- Iteration      1( 652)  ---------------------------------------


    POTLOK:  cpu time      0.0127: real time      0.0135
    SETDIJ:  cpu time      0.0584: real time      0.0584
 -----------------------------------------------------------------------------
|                                                                             |
|     EEEEEEE  RRRRRR   RRRRRR   OOOOOOO  RRRRRR      ###     ###     ###     |
|     E        R     R  R     R  O     O  R     R     ###     ###     ###     |
|     E        R     R  R     R  O     O  R     R     ###     ###     ###     |
|     EEEEE    RRRRRR   RRRRRR   O     O  RRRRRR       #       #       #      |
|     E        R   R    R   R    O     O  R   R                               |
|     E        R    R   R    R   O     O  R    R      ###     ###     ###     |
|     EEEEEEE  R     R  R     R  OOOOOOO  R     R     ###     ###     ###     |
|                                                                             |
|     ERROR in EDDIAG: call to ZHEEV/ZHEEVX/DSYEV/DSYEVX failed! error        |
|     code was 25400                                                          |
|                                                                             |
|       ---->  I REFUSE TO CONTINUE WITH THIS SICK JOB ... BYE!!! <----       |
|                                                                             |
 -----------------------------------------------------------------------------

