 vasp.6.3.2 27Jun22 (build Jul  3 2023 11:46:21) complex                         
 executed on    LinuxNV_CrayMPICH date 2024.04.20  23:35:07
 running on    4 total cores
 distrk:  each k-point on    4 cores,    1 groups
 distr:  one band on NCORE=   1 cores,    4 groups


--------------------------------------------------------------------------------------------------------


 INCAR:
   ALGO = Normal
   EDIFF = 4.6e-05
   EFIELD_PEAD = 0.0 0.0 0.0
   ENCUT = 520.0
   IBRION = -1
   ICHARG = 0
   ISIF = 3
   ISMEAR = 1
   ISPIN = 2
   LAECHG = True
   LCALCEPS = False
   LCALCPOL = False
   LCHARG = True
   LDAU = False
   LEFG = False
   LORBIT = 11
   LPEAD = False
   LREAL = Auto
   LWAVE = False
   MAGMOM = 2*7.0 40*0.6 4*5.0
   NELM = 1000
   NSW = 0
   PREC = accurate
   SIGMA = 0.2

 POTCAR:    PAW_PBE Eu 23Dec2003                  
 POTCAR:    PAW_PBE Al 04Jan2001                  
 POTCAR:    PAW_PBE V_pv 07Sep2000                
 POTCAR:    PAW_PBE Eu 23Dec2003                  
   SHA256 =  ed303d27e7c5191953f9b15539336e6f36d9037c1d2e92e80c13d733697cb93d Eu/POTCAR             
   COPYR  = (c) Copyright 23Dec2003 Georg Kresse                                                    
   COPYR  = This file is part of the software VASP. Any use, copying, and all other rights are regul
   COPYR  = If you do not have a valid VASP license, you may not use, copy or distribute this file. 
   VRHFIN =Eu : [core=Kr4d]                                                                         
   LEXCH  = PE                                                                                      
   EATOM  =  2619.8085 eV,  192.5505 Ry                                                             
                                                                                                    
   TITEL  = PAW_PBE Eu 23Dec2003                                                                    
   LULTRA =        F    use ultrasoft PP ?                                                          
   IUNSCR =        1    unscreen: 0-lin 1-nonlin 2-no                                               
   RPACOR =    2.300    partial core radius                                                         
   POMASS =  151.965; ZVAL   =   17.000    mass and valenz                                          
   RCORE  =    2.800    outmost cutoff radius                                                       
   RWIGS  =    2.800; RWIGS  =    1.482    wigner-seitz radius (au A)                               
   ENMAX  =  249.668; ENMIN  =  187.251 eV                                                          
   RCLOC  =    2.308    cutoff for local pot                                                        
   LCOR   =        T    correct aug charges                                                         
   LPAW   =        T    paw PP                                                                      
   EAUG   =  549.628                                                                                
   DEXC   =    0.000                                                                                
   RMAX   =    2.870    core radius for proj-oper                                                   
   RAUG   =    1.300    factor for augmentation sphere                                              
   RDEP   =    2.887    radius for radial grids                                                     
   RDEPT  =    2.221    core radius for aug-charge                                                  
                                                                                                    
   Atomic configuration                                                                             
   14 entries                                                                                       
     n  l   j            E        occ.                                                              
     1  0  0.50    -48354.7667   2.0000                                                             
     2  0  0.50     -7939.6472   2.0000                                                             
     2  1  1.50     -7072.6637   6.0000                                                             
     3  0  0.50     -1747.1875   2.0000                                                             
     3  1  1.50     -1477.5221   6.0000                                                             
     3  2  2.50     -1117.4686  10.0000                                                             
     4  0  0.50      -346.8682   2.0000                                                             
     4  1  1.50      -258.1962   6.0000                                                             
     4  2  2.50      -134.7724  10.0000                                                             
     5  0  0.50       -44.6510   2.0000                                                             
     6  0  0.50        -3.6227   2.0000                                                             
     5  1  1.50       -23.7639   6.0000                                                             
     5  2  2.50        -1.3130   0.0000                                                             
     4  3  2.50        -2.7310   7.0000                                                             
   Description                                                                                      
     l       E           TYP  RCUT    TYP  RCUT                                                     
     0    -44.6510453     23  2.400                                                                 
     0     -3.6226685     23  2.400                                                                 
     1    -23.7638687     23  2.400                                                                 
     1     27.2116520     23  2.400                                                                 
     2     -1.3129622     23  2.500                                                                 
     2     13.6058260     23  2.500                                                                 
     3     -2.7309948     23  2.800                                                                 
     3     -3.4014565     23  2.800                                                                 
  local pseudopotential read in
  partial core-charges read in
  partial kinetic energy density read in
  atomic valenz-charges read in
  non local Contribution for L=            0  read in
    real space projection operators read in
  non local Contribution for L=            0  read in
    real space projection operators read in
  non local Contribution for L=            1  read in
    real space projection operators read in
  non local Contribution for L=            1  read in
    real space projection operators read in
  non local Contribution for L=            2  read in
    real space projection operators read in
  non local Contribution for L=            2  read in
    real space projection operators read in
  non local Contribution for L=            3  read in
    real space projection operators read in
  non local Contribution for L=            3  read in
    real space projection operators read in
    PAW grid and wavefunctions read in
 
   number of l-projection  operators is LMAX  =            8
   number of lm-projection operators is LMMAX =           32
 
 POTCAR:    PAW_PBE Al 04Jan2001                  
   SHA256 =  17880443556af62b473fe41b62a467bd001ad55d2cabe504a3f22e34d4e9db96 Al/POTCAR             
   COPYR  = (c) Copyright 04Jan2001 Georg Kresse                                                    
   COPYR  = This file is part of the software VASP. Any use, copying, and all other rights are regul
   COPYR  = If you do not have a valid VASP license, you may not use, copy or distribute this file. 
   VRHFIN =Al: s2p1                                                                                 
   LEXCH  = PE                                                                                      
   EATOM  =    53.5387 eV,    3.9350 Ry                                                             
                                                                                                    
   TITEL  = PAW_PBE Al 04Jan2001                                                                    
   LULTRA =        F    use ultrasoft PP ?                                                          
   IUNSCR =        1    unscreen: 0-lin 1-nonlin 2-no                                               
   RPACOR =    1.500    partial core radius                                                         
   POMASS =   26.981; ZVAL   =    3.000    mass and valenz                                          
   RCORE  =    1.900    outmost cutoff radius                                                       
   RWIGS  =    2.650; RWIGS  =    1.402    wigner-seitz radius (au A)                               
   ENMAX  =  240.300; ENMIN  =  180.225 eV                                                          
   ICORE  =        2    local potential                                                             
   LCOR   =        T    correct aug charges                                                         
   LPAW   =        T    paw PP                                                                      
   EAUG   =  291.052                                                                                
   DEXC   =    0.000                                                                                
   RMAX   =    1.939    core radius for proj-oper                                                   
   RAUG   =    1.300    factor for augmentation sphere                                              
   RDEP   =    1.966    radius for radial grids                                                     
   RDEPT  =    1.856    core radius for aug-charge                                                  
                                                                                                    
   Atomic configuration                                                                             
    6 entries                                                                                       
     n  l   j            E        occ.                                                              
     1  0  0.50     -1511.1048   2.0000                                                             
     2  0  0.50      -108.1629   2.0000                                                             
     2  1  1.50       -69.6402   6.0000                                                             
     3  0  0.50        -7.7528   2.0000                                                             
     3  1  1.50        -2.7121   1.0000                                                             
     3  2  2.50        -2.7212   0.0000                                                             
   Description                                                                                      
     l       E           TYP  RCUT    TYP  RCUT                                                     
     0     -7.7528455     23  1.900                                                                 
     0     -3.3096929     23  1.900                                                                 
     1     -2.7120682     23  1.900                                                                 
     1     13.6058260     23  1.900                                                                 
     2     -2.7211652      7  1.900                                                                 
  local pseudopotential read in
  partial core-charges read in
  partial kinetic energy density read in
  atomic valenz-charges read in
  non local Contribution for L=            0  read in
    real space projection operators read in
  non local Contribution for L=            0  read in
    real space projection operators read in
  non local Contribution for L=            1  read in
    real space projection operators read in
  non local Contribution for L=            1  read in
    real space projection operators read in
    PAW grid and wavefunctions read in
 
   number of l-projection  operators is LMAX  =            4
   number of lm-projection operators is LMMAX =            8
 
 POTCAR:    PAW_PBE V_pv 07Sep2000                
   SHA256 =  1175d3c8cb4ffd1d150a520fa74fae5c3ec72c0849b5615a94a5372dd2cf07f7 V_pv/POTCAR           
   COPYR  = (c) Copyright 07Sep2000 Georg Kresse                                                    
   COPYR  = This file is part of the software VASP. Any use, copying, and all other rights are regul
   COPYR  = If you do not have a valid VASP license, you may not use, copy or distribute this file. 
   VRHFIN =V: p6 d4 s1                                                                              
   LEXCH  = PE                                                                                      
   EATOM  =  1321.6206 eV,   97.1364 Ry                                                             
                                                                                                    
   TITEL  = PAW_PBE V_pv 07Sep2000                                                                  
   LULTRA =        F    use ultrasoft PP ?                                                          
   IUNSCR =        1    unscreen: 0-lin 1-nonlin 2-no                                               
   RPACOR =    1.700    partial core radius                                                         
   POMASS =   50.941; ZVAL   =   11.000    mass and valenz                                          
   RCORE  =    2.300    outmost cutoff radius                                                       
   RWIGS  =    2.300; RWIGS  =    1.217    wigner-seitz radius (au A)                               
   ENMAX  =  263.673; ENMIN  =  197.755 eV                                                          
   RCLOC  =    1.779    cutoff for local pot                                                        
   LCOR   =        T    correct aug charges                                                         
   LPAW   =        T    paw PP                                                                      
   EAUG   =  598.473                                                                                
   DEXC   =    0.000                                                                                
   RMAX   =    2.359    core radius for proj-oper                                                   
   RAUG   =    1.300    factor for augmentation sphere                                              
   RDEP   =    2.430    radius for radial grids                                                     
   RDEPT  =    1.700    core radius for aug-charge                                                  
                                                                                                    
   Atomic configuration                                                                             
    8 entries                                                                                       
     n  l   j            E        occ.                                                              
     1  0  0.50     -5360.7193   2.0000                                                             
     2  0  0.50      -598.4546   2.0000                                                             
     2  1  1.50      -499.0155   6.0000                                                             
     3  0  0.50       -66.5711   2.0000                                                             
     3  1  1.50       -40.5282   6.0000                                                             
     3  2  2.50        -2.4291   4.0000                                                             
     4  0  0.50        -3.8743   1.0000                                                             
     4  3  2.50        -1.3606   0.0000                                                             
   Description                                                                                      
     l       E           TYP  RCUT    TYP  RCUT                                                     
     1    -40.5282431     23  2.000                                                                 
     1      5.4423304     23  2.000                                                                 
     2     -2.4290905     23  2.300                                                                 
     2     -1.0472488     23  2.300                                                                 
     0     -3.8742754     23  2.300                                                                 
     0     27.2116520     23  2.300                                                                 
  local pseudopotential read in
  partial core-charges read in
  partial kinetic energy density read in
  atomic valenz-charges read in
  non local Contribution for L=            1  read in
    real space projection operators read in
  non local Contribution for L=            1  read in
    real space projection operators read in
  non local Contribution for L=            2  read in
    real space projection operators read in
  non local Contribution for L=            2  read in
    real space projection operators read in
  non local Contribution for L=            0  read in
    real space projection operators read in
  non local Contribution for L=            0  read in
    real space projection operators read in
    PAW grid and wavefunctions read in
 
   number of l-projection  operators is LMAX  =            6
   number of lm-projection operators is LMMAX =           18
 
 Optimization of the real space projectors (new method)

 maximal supplied QI-value         = 13.42
 optimisation between [QCUT,QGAM] = [ 11.67, 23.35] = [ 38.16,152.62] Ry 
 Optimized for a Real-space Cutoff    1.63 Angstroem

   l    n(q)    QCUT    max X(q) W(low)/X(q) W(high)/X(q)  e(spline) 
   0     11    11.673    10.400    0.14E-04    0.18E-05    0.24E-07
   0     11    11.673    10.768    0.21E-04    0.32E-05    0.49E-07
   1     11    11.673     4.094    0.40E-05    0.13E-04    0.93E-07
   1     11    11.673     4.009    0.11E-04    0.46E-04    0.33E-06
   2     10    11.673    29.030    0.79E-04    0.60E-04    0.70E-06
   2     10    11.673    19.941    0.80E-04    0.60E-04    0.71E-06
   3     10    11.673    88.889    0.23E-03    0.29E-03    0.30E-06
   3     10    11.673    76.102    0.23E-03    0.30E-03    0.30E-06
 Optimization of the real space projectors (new method)

 maximal supplied QI-value         = 19.84
 optimisation between [QCUT,QGAM] = [ 11.51, 23.22] = [ 37.09,150.92] Ry 
 Optimized for a Real-space Cutoff    1.18 Angstroem

   l    n(q)    QCUT    max X(q) W(low)/X(q) W(high)/X(q)  e(spline) 
   0      8    11.508   176.870    0.11E-03    0.16E-03    0.40E-07
   0      8    11.508   105.762    0.11E-03    0.16E-03    0.39E-07
   1      8    11.508    55.370    0.23E-03    0.10E-03    0.75E-07
   1      8    11.508    20.208    0.21E-03    0.91E-04    0.68E-07
 Optimization of the real space projectors (new method)

 maximal supplied QI-value         = 16.25
 optimisation between [QCUT,QGAM] = [ 11.54, 23.24] = [ 37.28,151.24] Ry 
 Optimized for a Real-space Cutoff    1.53 Angstroem

   l    n(q)    QCUT    max X(q) W(low)/X(q) W(high)/X(q)  e(spline) 
   1     10    11.539     3.206    0.43E-05    0.46E-05    0.52E-07
   1     10    11.539     4.597    0.39E-04    0.25E-04    0.17E-06
   2     10    11.539    89.000    0.10E-03    0.13E-03    0.24E-06
   2     10    11.539    82.410    0.10E-03    0.13E-03    0.23E-06
   0     11    11.539    36.565    0.42E-04    0.19E-04    0.30E-06
   0     11    11.539    13.729    0.20E-04    0.13E-04    0.22E-06
  PAW_PBE Eu 23Dec2003                  :
 energy of atom  1       EATOM=-2619.8085
 kinetic energy error for atom=    0.0015 (will be added to EATOM!!)
  PAW_PBE Al 04Jan2001                  :
 energy of atom  2       EATOM=  -53.5387
 kinetic energy error for atom=    0.0002 (will be added to EATOM!!)
  PAW_PBE V_pv 07Sep2000                :
 energy of atom  3       EATOM=-1321.6206
 kinetic energy error for atom=    0.0054 (will be added to EATOM!!)
 
 
 POSCAR: Eu2 Al40 V4
  positions in direct lattice
  No initial velocities read in
 exchange correlation table for  LEXCH =        8
   RHO(1)=    0.500       N(1)  =     2000
   RHO(2)=  100.500       N(2)  =     4000

 VTST: version 4.2, (08/11/21)

 CHAIN: initializing optimizer
 
 OPT: Using VASP Dynamics algorithm
 CHAIN: Read ICHAIN             0
 
 POSCAR: Eu2 Al40 V4
  positions in direct lattice
  No initial velocities read in
 


--------------------------------------------------------------------------------------------------------


 ion  position               nearest neighbor table
   1  0.625  0.625  0.625-  27 3.15  36 3.15  40 3.15  42 3.15  33 3.22  41 3.22   3 3.22  28 3.22
                            24 3.22   5 3.22  21 3.22  35 3.22   9 3.22  25 3.22  10 3.22  20 3.22
   2  0.375  0.375  0.375-  27 3.15  36 3.15  40 3.15  42 3.15  37 3.22   7 3.22  15 3.22  23 3.22
                            14 3.22   6 3.22   8 3.22  13 3.22  38 3.22  39 3.22   4 3.22  32 3.22
   3  0.826  0.557  0.826-  12 2.70  28 2.72  33 2.77  41 2.77  45 2.81  17 2.85  34 2.85   8 2.93
                            39 2.93  42 3.11  27 3.11   1 3.22
   4  0.708  0.174  0.443-  30 2.70  38 2.72   6 2.77   8 2.77  43 2.81  18 2.85  26 2.85  20 2.93
                            41 2.93  36 3.11  40 3.11   2 3.22
   5  0.292  0.826  0.826-  22 2.70  33 2.72  25 2.77  35 2.77  46 2.81  31 2.85  19 2.85  23 2.93
                            14 2.93  40 3.11  27 3.11   1 3.22
   6  0.708  0.174  0.174-  11 2.70  37 2.72   4 2.77   8 2.77  46 2.81  12 2.85  26 2.85  24 2.93
                            28 2.93  40 3.11  27 3.11   2 3.22
   7  0.174  0.443  0.174-  19 2.70  14 2.72  15 2.77  37 2.77  45 2.81  18 2.85  29 2.85  25 2.93
                            21 2.93  42 3.11  27 3.11   2 3.22
   8  0.708  0.443  0.174-  34 2.70  13 2.72   4 2.77   6 2.77  45 2.81  18 2.85  12 2.85  21 2.93
                             3 2.93  36 3.11  27 3.11   2 3.22
   9  0.557  0.292  0.826-  29 2.70  25 2.72  28 2.77  20 2.77  44 2.81  30 2.85  11 2.85  38 2.93
                            37 2.93  36 3.11  27 3.11   1 3.22
  10  0.557  0.826  0.292-  16 2.70  35 2.72  24 2.77  21 2.77  44 2.81  34 2.85  11 2.85  13 2.93
                            37 2.93  36 3.11  40 3.11   1 3.22
  11  0.736  0.014  0.014-  44 2.58  46 2.58  37 2.70   6 2.70  24 2.85  28 2.85  10 2.85   9 2.85
                            34 2.86  19 2.86  30 2.86  31 2.86
  12  0.986  0.264  0.986-  45 2.58  46 2.58   3 2.70  28 2.70  23 2.85   6 2.85   8 2.85  39 2.85
                            29 2.86  18 2.86  26 2.86  22 2.86
  13  0.443  0.708  0.174-  34 2.70   8 2.72  32 2.77  14 2.77  44 2.81  16 2.85  22 2.85  10 2.93
                            33 2.93  36 3.11  27 3.11   2 3.22
  14  0.174  0.708  0.174-  19 2.70   7 2.72  13 2.77  32 2.77  46 2.81  22 2.85  26 2.85  24 2.93
                             5 2.93  42 3.11  27 3.11   2 3.22
  15  0.174  0.174  0.443-  31 2.70  23 2.72   7 2.77  37 2.77  43 2.81  16 2.85  18 2.85  20 2.93
                            35 2.93  42 3.11  40 3.11   2 3.22
  16  0.264  0.986  0.264-  43 2.58  44 2.58  10 2.70  35 2.70  32 2.85  13 2.85  15 2.85  37 2.85
                            22 2.86  26 2.86  29 2.86  18 2.86
  17  0.014  0.736  0.736-  43 2.58  45 2.58  32 2.70  39 2.70  35 2.85  25 2.85   3 2.85  41 2.85
                            31 2.86  19 2.86  34 2.86  30 2.86
  18  0.986  0.264  0.264-  43 2.58  45 2.58  20 2.70  21 2.70   4 2.85   8 2.85   7 2.85  15 2.85
                            26 2.86  29 2.86  12 2.86  16 2.86
  19  0.014  0.736  0.014-  45 2.58  46 2.58   7 2.70  14 2.70  24 2.85   5 2.85  21 2.85  25 2.85
                            31 2.86  34 2.86  17 2.86  11 2.86
  20  0.826  0.292  0.557-  18 2.70  21 2.72   9 2.77  28 2.77  43 2.81  30 2.85  31 2.85   4 2.93
                            15 2.93  36 3.11  42 3.11   1 3.22
  21  0.826  0.557  0.292-  18 2.70  20 2.72  10 2.77  24 2.77  45 2.81  34 2.85  19 2.85   8 2.93
                             7 2.93  36 3.11  42 3.11   1 3.22
  22  0.264  0.986  0.986-  44 2.58  46 2.58  33 2.70   5 2.70  23 2.85  14 2.85  13 2.85  38 2.85
                            16 2.86  12 2.86  26 2.86  29 2.86
  23  0.174  0.174  0.708-  31 2.70  15 2.72  38 2.77  39 2.77  46 2.81  22 2.85  12 2.85   5 2.93
                            28 2.93  42 3.11  40 3.11   2 3.22
  24  0.826  0.826  0.292-  26 2.70  41 2.72  10 2.77  21 2.77  46 2.81  11 2.85  19 2.85  14 2.93
                             6 2.93  42 3.11  40 3.11   1 3.22
  25  0.292  0.557  0.826-  29 2.70   9 2.72   5 2.77  35 2.77  45 2.81  17 2.85  19 2.85  39 2.93
                             7 2.93  36 3.11  27 3.11   1 3.22
  26  0.986  0.986  0.264-  43 2.58  46 2.58  41 2.70  24 2.70   6 2.85  14 2.85  32 2.85   4 2.85
                            16 2.86  18 2.86  22 2.86  12 2.86
  27  0.500  0.500  0.000-   3 3.11   7 3.11  33 3.11  37 3.11  14 3.11  28 3.11   6 3.11   5 3.11
                            25 3.11   9 3.11  13 3.11   8 3.11   1 3.15   2 3.15
  28  0.826  0.292  0.826-  12 2.70   3 2.72   9 2.77  20 2.77  46 2.81  11 2.85  31 2.85   6 2.93
                            23 2.93  42 3.11  27 3.11   1 3.22
  29  0.264  0.264  0.986-  44 2.58  45 2.58   9 2.70  25 2.70  38 2.85  39 2.85  37 2.85   7 2.85
                            18 2.86  22 2.86  12 2.86  16 2.86
  30  0.736  0.014  0.736-  43 2.58  44 2.58   4 2.70  38 2.70  20 2.85   9 2.85  33 2.85  41 2.85
                            11 2.86  31 2.86  17 2.86  34 2.86
  31  0.014  0.014  0.736-  43 2.58  46 2.58  15 2.70  23 2.70   5 2.85  28 2.85  20 2.85  35 2.85
                            30 2.86  11 2.86  17 2.86  19 2.86
  32  0.174  0.708  0.443-  17 2.70  39 2.72  13 2.77  14 2.77  43 2.81  16 2.85  26 2.85  35 2.93
                            41 2.93  36 3.11  42 3.11   2 3.22
  33  0.557  0.826  0.826-  22 2.70   5 2.72   3 2.77  41 2.77  44 2.81  30 2.85  34 2.85  13 2.93
                            38 2.93  27 3.11  40 3.11   1 3.22
  34  0.736  0.736  0.014-  44 2.58  45 2.58   8 2.70  13 2.70  10 2.85  21 2.85  33 2.85   3 2.85
                            30 2.86  17 2.86  19 2.86  11 2.86
  35  0.292  0.826  0.557-  16 2.70  10 2.72   5 2.77  25 2.77  43 2.81  17 2.85  31 2.85  32 2.93
                            15 2.93  36 3.11  40 3.11   1 3.22
  36  0.500  0.500  0.500-   4 3.11   8 3.11   9 3.11  10 3.11  13 3.11  20 3.11  21 3.11  25 3.11
                            32 3.11  35 3.11  38 3.11  39 3.11   1 3.15   2 3.15
  37  0.443  0.174  0.174-  11 2.70   6 2.72   7 2.77  15 2.77  44 2.81  29 2.85  16 2.85  10 2.93
                             9 2.93  40 3.11  27 3.11   2 3.22
  38  0.443  0.174  0.708-  30 2.70   4 2.72  23 2.77  39 2.77  44 2.81  29 2.85  22 2.85   9 2.93
                            33 2.93  36 3.11  40 3.11   2 3.22
  39  0.174  0.443  0.708-  17 2.70  32 2.72  23 2.77  38 2.77  45 2.81  29 2.85  12 2.85  25 2.93
                             3 2.93  36 3.11  42 3.11   2 3.22
  40  0.500  0.000  0.500-  15 3.11  33 3.11  37 3.11  41 3.11  24 3.11  23 3.11   5 3.11   6 3.11
                            38 3.11  10 3.11  35 3.11   4 3.11   1 3.15   2 3.15
  41  0.826  0.826  0.557-  26 2.70  24 2.72   3 2.77  33 2.77  43 2.81  17 2.85  30 2.85   4 2.93
                            32 2.93  42 3.11  40 3.11   1 3.22
  42  0.000  0.500  0.500-   3 3.11   7 3.11  15 3.11  41 3.11  23 3.11  24 3.11  28 3.11  14 3.11
                            39 3.11  21 3.11  20 3.11  32 3.11   1 3.15   2 3.15
  43  0.000  0.000  0.500-  16 2.58  17 2.58  18 2.58  26 2.58  30 2.58  31 2.58  20 2.81   4 2.81
                            32 2.81  35 2.81  15 2.81  41 2.81
  44  0.500  0.000  0.000-  11 2.58  16 2.58  22 2.58  29 2.58  30 2.58  34 2.58  13 2.81  10 2.81
                             9 2.81  38 2.81  37 2.81  33 2.81
  45  0.000  0.500  0.000-  12 2.58  17 2.58  18 2.58  19 2.58  29 2.58  34 2.58  25 2.81   8 2.81
                            21 2.81  39 2.81   3 2.81   7 2.81
  46  0.000  0.000  0.000-  11 2.58  12 2.58  19 2.58  22 2.58  26 2.58  31 2.58   6 2.81  23 2.81
                            24 2.81  14 2.81  28 2.81   5 2.81
 
  LATTYP: Found a face centered cubic cell.
 ALAT       =    14.5570580000
  
  Lattice vectors:
  
 A1 = (   0.0000000000,   7.2785290000,   7.2785290000)
 A2 = (   7.2785290000,   0.0000000000,   7.2785290000)
 A3 = (   7.2785290000,   7.2785290000,   0.0000000000)


Analysis of symmetry for initial positions (statically):
=====================================================================
 Subroutine PRICEL returns:
 Original cell was already a primitive cell.
 

 Routine SETGRP: Setting up the symmetry group for a 
 face centered cubic supercell.


 Subroutine GETGRP returns: Found 48 space group operations
 (whereof 12 operations were pure point group operations)
 out of a pool of 48 trial point group operations.


The static configuration has the point symmetry D_3d.
 The point group associated with its full space group is O_h .


Analysis of symmetry for dynamics (positions and initial velocities):
=====================================================================
 Subroutine PRICEL returns:
 Original cell was already a primitive cell.
 

 Routine SETGRP: Setting up the symmetry group for a 
 face centered cubic supercell.


 Subroutine GETGRP returns: Found 48 space group operations
 (whereof 12 operations were pure point group operations)
 out of a pool of 48 trial point group operations.


The dynamic configuration has the point symmetry D_3d.
 The point group associated with its full space group is O_h .


Analysis of structural, dynamic, and magnetic symmetry:
=====================================================================
 Subroutine PRICEL returns:
 Original cell was already a primitive cell.
 

 Routine SETGRP: Setting up the symmetry group for a 
 face centered cubic supercell.


 Subroutine GETGRP returns: Found 48 space group operations
 (whereof 12 operations were pure point group operations)
 out of a pool of 48 trial point group operations.


The overall configuration has the point symmetry D_3d.
 The point group associated with its full space group is O_h .


 Subroutine INISYM returns: Found 48 space group operations
 (whereof 12 operations are pure point group operations),
 and found     1 'primitive' translations


----------------------------------------------------------------------------------------

                                     Primitive cell                                     

  volume of cell :     771.1890

  direct lattice vectors                    reciprocal lattice vectors
     0.000000000  7.278529000  7.278529000    -0.068695199  0.068695199  0.068695199
     7.278529000  0.000000000  7.278529000     0.068695199 -0.068695199  0.068695199
     7.278529000  7.278529000  0.000000000     0.068695199  0.068695199 -0.068695199

  length of vectors
    10.293394426 10.293394426 10.293394426     0.118983575  0.118983575  0.118983575

  position of ions in fractional coordinates (direct lattice)
     0.625000000  0.625000000  0.625000000
     0.375000000  0.375000000  0.375000000
     0.825620000  0.556656000  0.825620000
     0.707897000  0.174380000  0.443344000
     0.292103000  0.825620000  0.825620000
     0.707897000  0.174380000  0.174380000
     0.174380000  0.443344000  0.174380000
     0.707897000  0.443344000  0.174380000
     0.556656000  0.292103000  0.825620000
     0.556656000  0.825620000  0.292103000
     0.736125000  0.013875000  0.013875000
     0.986125000  0.263875000  0.986125000
     0.443344000  0.707897000  0.174380000
     0.174380000  0.707897000  0.174380000
     0.174380000  0.174380000  0.443344000
     0.263875000  0.986125000  0.263875000
     0.013875000  0.736125000  0.736125000
     0.986125000  0.263875000  0.263875000
     0.013875000  0.736125000  0.013875000
     0.825620000  0.292103000  0.556656000
     0.825620000  0.556656000  0.292103000
     0.263875000  0.986125000  0.986125000
     0.174380000  0.174380000  0.707897000
     0.825620000  0.825620000  0.292103000
     0.292103000  0.556656000  0.825620000
     0.986125000  0.986125000  0.263875000
     0.500000000  0.500000000  0.000000000
     0.825620000  0.292103000  0.825620000
     0.263875000  0.263875000  0.986125000
     0.736125000  0.013875000  0.736125000
     0.013875000  0.013875000  0.736125000
     0.174380000  0.707897000  0.443344000
     0.556656000  0.825620000  0.825620000
     0.736125000  0.736125000  0.013875000
     0.292103000  0.825620000  0.556656000
     0.500000000  0.500000000  0.500000000
     0.443344000  0.174380000  0.174380000
     0.443344000  0.174380000  0.707897000
     0.174380000  0.443344000  0.707897000
     0.500000000  0.000000000  0.500000000
     0.825620000  0.825620000  0.556656000
     1.000000000  0.500000000  0.500000000
     1.000000000  0.000000000  0.500000000
     0.500000000  1.000000000  0.000000000
     1.000000000  0.500000000  0.000000000
     0.000000000  0.000000000  0.000000000

  ion indices of the primitive-cell ions
   primitive index   ion index
                 1           1
                 2           2
                 3           3
                 4           4
                 5           5
                 6           6
                 7           7
                 8           8
                 9           9
                10          10
                11          11
                12          12
                13          13
                14          14
                15          15
                16          16
                17          17
                18          18
                19          19
                20          20
                21          21
                22          22
                23          23
                24          24
                25          25
                26          26
                27          27
                28          28
                29          29
                30          30
                31          31
                32          32
                33          33
                34          34
                35          35
                36          36
                37          37
                38          38
                39          39
                40          40
                41          41
                42          42
                43          43
                44          44
                45          45
                46          46

----------------------------------------------------------------------------------------

 
 
 KPOINTS: Kpoints from vasprun.xml                

Automatic generation of k-mesh.
 Grid dimensions read from file:
 generate k-points for:    6    6    6

 Generating k-lattice:

  Cartesian coordinates                     Fractional coordinates (reciprocal lattice)
    -0.011449200  0.011449200  0.011449200     0.166666667  0.000000000  0.000000000
     0.011449200 -0.011449200  0.011449200     0.000000000  0.166666667 -0.000000000
     0.011449200  0.011449200 -0.011449200    -0.000000000 -0.000000000  0.166666667

  Length of vectors
     0.019830596  0.019830596  0.019830596

  Shift w.r.t. Gamma in fractional coordinates (k-lattice)
     0.500000000  0.500000000  0.500000000

 
 Subroutine IBZKPT returns following result:
 ===========================================
 
 Found     28 irreducible k-points:
 
 Following reciprocal coordinates:
            Coordinates               Weight
  0.083333  0.083333  0.083333      8.000000
  0.250000  0.083333  0.083333     24.000000
  0.416667  0.083333  0.083333     24.000000
 -0.416667  0.083333  0.083333     24.000000
 -0.250000  0.083333  0.083333     24.000000
 -0.083333  0.083333  0.083333     24.000000
  0.250000  0.250000  0.083333     24.000000
  0.416667  0.250000  0.083333     48.000000
 -0.416667  0.250000  0.083333     48.000000
 -0.250000  0.250000  0.083333     48.000000
 -0.083333  0.250000  0.083333     48.000000
  0.416667  0.416667  0.083333     24.000000
 -0.416667  0.416667  0.083333     48.000000
 -0.250000  0.416667  0.083333     48.000000
 -0.083333  0.416667  0.083333     48.000000
 -0.416667 -0.416667  0.083333     24.000000
 -0.250000 -0.416667  0.083333     48.000000
 -0.250000 -0.250000  0.083333     24.000000
  0.250000  0.250000  0.250000      8.000000
  0.416667  0.250000  0.250000     24.000000
 -0.416667  0.250000  0.250000     24.000000
 -0.250000  0.250000  0.250000     24.000000
  0.416667  0.416667  0.250000     24.000000
 -0.416667  0.416667  0.250000     48.000000
 -0.250000  0.416667  0.250000     48.000000
 -0.416667 -0.416667  0.250000     24.000000
  0.416667  0.416667  0.416667      8.000000
 -0.416667  0.416667  0.416667     24.000000
 
 Following cartesian coordinates:
            Coordinates               Weight
  0.005725  0.005725  0.005725      8.000000
 -0.005725  0.017174  0.017174     24.000000
 -0.017174  0.028623  0.028623     24.000000
  0.040072 -0.028623 -0.028623     24.000000
  0.028623 -0.017174 -0.017174     24.000000
  0.017174 -0.005725 -0.005725     24.000000
  0.005725  0.005725  0.028623     24.000000
 -0.005725  0.017174  0.040072     48.000000
  0.051521 -0.040072 -0.017174     48.000000
  0.040072 -0.028623 -0.005725     48.000000
  0.028623 -0.017174  0.005725     48.000000
  0.005725  0.005725  0.051521     24.000000
  0.062971 -0.051521 -0.005725     48.000000
  0.051521 -0.040072  0.005725     48.000000
  0.040072 -0.028623  0.017174     48.000000
  0.005725  0.005725 -0.062971     24.000000
 -0.005725  0.017174 -0.051521     48.000000
  0.005725  0.005725 -0.040072     24.000000
  0.017174  0.017174  0.017174      8.000000
  0.005725  0.028623  0.028623     24.000000
  0.062971 -0.028623 -0.028623     24.000000
  0.051521 -0.017174 -0.017174     24.000000
  0.017174  0.017174  0.040072     24.000000
  0.074420 -0.040072 -0.017174     48.000000
  0.062971 -0.028623 -0.005725     48.000000
  0.017174  0.017174 -0.074420     24.000000
  0.028623  0.028623  0.028623      8.000000
  0.085869 -0.028623 -0.028623     24.000000
 


--------------------------------------------------------------------------------------------------------




 Dimension of arrays:
   k-points           NKPTS =     28   k-points in BZ     NKDIM =     28   number of bands    NBANDS=    152
   number of dos      NEDOS =    301   number of ions     NIONS =     46
   non local maximal  LDIM  =      8   non local SUM 2l+1 LMDIM =     32
   total plane-waves  NPLWV = 512000
   max r-space proj   IRMAX =  12032   max aug-charges    IRDMAX=  38150
   dimension x,y,z NGX =    80 NGY =   80 NGZ =   80
   dimension x,y,z NGXF=   160 NGYF=  160 NGZF=  160
   support grid    NGXF=   160 NGYF=  160 NGZF=  160
   ions per type =               2  40   4
   NGX,Y,Z   is equivalent  to a cutoff of  12.92, 12.92, 12.92 a.u.
   NGXF,Y,Z  is equivalent  to a cutoff of  25.84, 25.84, 25.84 a.u.

 SYSTEM =  unknown system                          
 POSCAR =  Eu2 Al40 V4                             

 Startparameter for this run:
   NWRITE =      2    write-flag & timer
   PREC   = accura    normal or accurate (medium, high low for compatibility)
   ISTART =      0    job   : 0-new  1-cont  2-samecut
   ICHARG =      0    charge: 1-file 2-atom 10-const
   ISPIN  =      2    spin polarized calculation?
   LNONCOLLINEAR =      F non collinear calculations
   LSORBIT =      F    spin-orbit coupling
   INIWAV =      1    electr: 0-lowe 1-rand  2-diag
   LASPH  =      F    aspherical Exc in radial PAW
 Electronic Relaxation 1
   ENCUT  =  520.0 eV  38.22 Ry    6.18 a.u.  19.14 19.14 19.14*2*pi/ulx,y,z
   ENINI  =  520.0     initial cutoff
   ENAUG  =  598.5 eV  augmentation charge cutoff
   NELM   =   1000;   NELMIN=  2; NELMDL= -5     # of ELM steps 
   EDIFF  = 0.5E-04   stopping-criterion for ELM
   LREAL  =      T    real-space projection
   NLSPLINE    = F    spline interpolate recip. space projectors
   LCOMPAT=      F    compatible to vasp.4.4
   GGA_COMPAT  = T    GGA compatible to vasp.4.4-vasp.4.6
   LMAXPAW     = -100 max onsite density
   LMAXMIX     =    2 max onsite mixed and CHGCAR
   VOSKOWN=      0    Vosko Wilk Nusair interpolation
   ROPT   =   -0.00025  -0.00025  -0.00025
 Ionic relaxation
   EDIFFG = 0.5E-03   stopping-criterion for IOM
   NSW    =      0    number of steps for IOM
   NBLOCK =      1;   KBLOCK =      1    inner block; outer block 
   IBRION =     -1    ionic relax: 0-MD 1-quasi-New 2-CG
   NFREE  =      0    steps in history (QN), initial steepest desc. (CG)
   ISIF   =      3    stress and relaxation
   IWAVPR =     10    prediction:  0-non 1-charg 2-wave 3-comb
   ISYM   =      2    0-nonsym 1-usesym 2-fastsym
   LCORR  =      T    Harris-Foulkes like correction to forces

   POTIM  = 0.5000    time-step for ionic-motion
   TEIN   =    0.0    initial temperature
   TEBEG  =    0.0;   TEEND  =   0.0 temperature during run
   SMASS  =  -3.00    Nose mass-parameter (am)
   estimated Nose-frequenzy (Omega)   =  0.10E-29 period in steps = 0.13E+47 mass=  -0.242E-26a.u.
   SCALEE = 1.0000    scale energy and forces
   NPACO  =    256;   APACO  = 10.0  distance and # of slots for P.C.
   PSTRESS=    0.0 pullay stress

  Mass of Ions in am
   POMASS = 151.97 26.98 50.94
  Ionic Valenz
   ZVAL   =  17.00  3.00 11.00
  Atomic Wigner-Seitz radii
   RWIGS  =  -1.00 -1.00 -1.00
  virtual crystal weights 
   VCA    =   1.00  1.00  1.00
   NELECT =     198.0000    total number of electrons
   NUPDOWN=      -1.0000    fix difference up-down

 DOS related values:
   EMIN   =  10.00;   EMAX   =-10.00  energy-range for DOS
   EFERMI =   0.00
   ISMEAR =     1;   SIGMA  =   0.20  broadening in eV -4-tet -1-fermi 0-gaus

 Electronic relaxation 2 (details)
   IALGO  =     38    algorithm
   LDIAG  =      T    sub-space diagonalisation (order eigenvalues)
   LSUBROT=      F    optimize rotation matrix (better conditioning)
   TURBO    =      0    0=normal 1=particle mesh
   IRESTART =      0    0=no restart 2=restart with 2 vectors
   NREBOOT  =      0    no. of reboots
   NMIN     =      0    reboot dimension
   EREF     =   0.00    reference energy to select bands
   IMIX   =      4    mixing-type and parameters
     AMIX     =   0.40;   BMIX     =  1.00
     AMIX_MAG =   1.60;   BMIX_MAG =  1.00
     AMIN     =   0.10
     WC   =   100.;   INIMIX=   1;  MIXPRE=   1;  MAXMIX= -45

 Intra band minimization:
   WEIMIN = 0.0000     energy-eigenvalue tresh-hold
   EBREAK =  0.76E-07  absolut break condition
   DEPER  =   0.30     relativ break condition  

   TIME   =   0.40     timestep for ELM

  volume/ion in A,a.u.               =      16.76       113.14
  Fermi-wavevector in a.u.,A,eV,Ry     =   1.040502  1.966264 14.730273  1.082645
  Thomas-Fermi vector in A             =   2.175081
 
 Write flags
   LWAVE        =      F    write WAVECAR
   LDOWNSAMPLE  =      F    k-point downsampling of WAVECAR
   LCHARG       =      T    write CHGCAR
   LVTOT        =      F    write LOCPOT, total local potential
   LVHAR        =      F    write LOCPOT, Hartree potential only
   LELF         =      F    write electronic localiz. function (ELF)
   LORBIT       =     11    0 simple, 1 ext, 2 COOP (PROOUT), +10 PAW based schemes


 Dipole corrections
   LMONO  =      F    monopole corrections only (constant potential shift)
   LDIPOL =      F    correct potential (dipole corrections)
   IDIPOL =      0    1-x, 2-y, 3-z, 4-all directions 
   EPSILON=  1.0000000 bulk dielectric constant

 Exchange correlation treatment:
   GGA     =    --    GGA type
   LEXCH   =     8    internal setting for exchange type
   LIBXC   =     F    Libxc                    
   VOSKOWN =     0    Vosko Wilk Nusair interpolation
   LHFCALC =     F    Hartree Fock is set to
   LHFONE  =     F    Hartree Fock one center treatment
   AEXX    =    0.0000 exact exchange contribution

 Linear response parameters
   LEPSILON=     F    determine dielectric tensor
   LRPA    =     F    only Hartree local field effects (RPA)
   LNABLA  =     F    use nabla operator in PAW spheres
   LVEL    =     F    velocity operator in full k-point grid
   CSHIFT  =0.1000    complex shift for real part using Kramers Kronig
   OMEGAMAX=  -1.0    maximum frequency
   DEG_THRESHOLD= 0.2000000E-02 threshold for treating states as degnerate
   RTIME   =   -0.100 relaxation time in fs
  (WPLASMAI=    0.000 imaginary part of plasma frequency in eV, 0.658/RTIME)
   DFIELD  = 0.0000000 0.0000000 0.0000000 field for delta impulse in time
 
  Optional k-point grid parameters
   LKPOINTS_OPT  =     F    use optional k-point grid
   KPOINTS_OPT_MODE=     1    mode for optional k-point grid
 
 Orbital magnetization related:
   ORBITALMAG=     F  switch on orbital magnetization
   LCHIMAG   =     F  perturbation theory with respect to B field
   DQ        =  0.001000  dq finite difference perturbation B field
   LLRAUG    =     F  two centre corrections for induced B field



--------------------------------------------------------------------------------------------------------


 Static calculation
 charge density and potential will be updated during run
 spin polarized calculation
 Variant of blocked Davidson
 Davidson routine will perform the subspace rotation
 perform sub-space diagonalisation
    after iterative eigenvector-optimisation
 modified Broyden-mixing scheme, WC =      100.0
 initial mixing is a Kerker type mixing with AMIX =  0.4000 and BMIX =      1.0000
 Hartree-type preconditioning will be used
 using additional bands            53
 real space projection scheme for non local part
 use partial core corrections
 calculate Harris-corrections to forces 
   (improved forces if not selfconsistent)
 use gradient corrections 
 use of overlap-Matrix (Vanderbilt PP)
 Methfessel and Paxton  Order N= 1 SIGMA  =   0.20


--------------------------------------------------------------------------------------------------------


  energy-cutoff  :      520.00
  volume of cell :      771.19
      direct lattice vectors                 reciprocal lattice vectors
     0.000000000  7.278529000  7.278529000    -0.068695199  0.068695199  0.068695199
     7.278529000  0.000000000  7.278529000     0.068695199 -0.068695199  0.068695199
     7.278529000  7.278529000  0.000000000     0.068695199  0.068695199 -0.068695199

  length of vectors
    10.293394426 10.293394426 10.293394426     0.118983575  0.118983575  0.118983575


 
 k-points in units of 2pi/SCALE and weight: Kpoints from vasprun.xml                
   0.00572460  0.00572460  0.00572460       0.009
  -0.00572460  0.01717380  0.01717380       0.028
  -0.01717380  0.02862300  0.02862300       0.028
   0.04007220 -0.02862300 -0.02862300       0.028
   0.02862300 -0.01717380 -0.01717380       0.028
   0.01717380 -0.00572460 -0.00572460       0.028
   0.00572460  0.00572460  0.02862300       0.028
  -0.00572460  0.01717380  0.04007220       0.056
   0.05152140 -0.04007220 -0.01717380       0.056
   0.04007220 -0.02862300 -0.00572460       0.056
   0.02862300 -0.01717380  0.00572460       0.056
   0.00572460  0.00572460  0.05152140       0.028
   0.06297060 -0.05152140 -0.00572460       0.056
   0.05152140 -0.04007220  0.00572460       0.056
   0.04007220 -0.02862300  0.01717380       0.056
   0.00572460  0.00572460 -0.06297060       0.028
  -0.00572460  0.01717380 -0.05152140       0.056
   0.00572460  0.00572460 -0.04007220       0.028
   0.01717380  0.01717380  0.01717380       0.009
   0.00572460  0.02862300  0.02862300       0.028
   0.06297060 -0.02862300 -0.02862300       0.028
   0.05152140 -0.01717380 -0.01717380       0.028
   0.01717380  0.01717380  0.04007220       0.028
   0.07441980 -0.04007220 -0.01717380       0.056
   0.06297060 -0.02862300 -0.00572460       0.056
   0.01717380  0.01717380 -0.07441980       0.028
   0.02862300  0.02862300  0.02862300       0.009
   0.08586900 -0.02862300 -0.02862300       0.028
 
 k-points in reciprocal lattice and weights: Kpoints from vasprun.xml                
   0.08333333  0.08333333  0.08333333       0.009
   0.25000000  0.08333333  0.08333333       0.028
   0.41666667  0.08333333  0.08333333       0.028
  -0.41666667  0.08333333  0.08333333       0.028
  -0.25000000  0.08333333  0.08333333       0.028
  -0.08333333  0.08333333  0.08333333       0.028
   0.25000000  0.25000000  0.08333333       0.028
   0.41666667  0.25000000  0.08333333       0.056
  -0.41666667  0.25000000  0.08333333       0.056
  -0.25000000  0.25000000  0.08333333       0.056
  -0.08333333  0.25000000  0.08333333       0.056
   0.41666667  0.41666667  0.08333333       0.028
  -0.41666667  0.41666667  0.08333333       0.056
  -0.25000000  0.41666667  0.08333333       0.056
  -0.08333333  0.41666667  0.08333333       0.056
  -0.41666667 -0.41666667  0.08333333       0.028
  -0.25000000 -0.41666667  0.08333333       0.056
  -0.25000000 -0.25000000  0.08333333       0.028
   0.25000000  0.25000000  0.25000000       0.009
   0.41666667  0.25000000  0.25000000       0.028
  -0.41666667  0.25000000  0.25000000       0.028
  -0.25000000  0.25000000  0.25000000       0.028
   0.41666667  0.41666667  0.25000000       0.028
  -0.41666667  0.41666667  0.25000000       0.056
  -0.25000000  0.41666667  0.25000000       0.056
  -0.41666667 -0.41666667  0.25000000       0.028
   0.41666667  0.41666667  0.41666667       0.009
  -0.41666667  0.41666667  0.41666667       0.028
 
 position of ions in fractional coordinates (direct lattice) 
   0.62500000  0.62500000  0.62500000
   0.37500000  0.37500000  0.37500000
   0.82562000  0.55665600  0.82562000
   0.70789700  0.17438000  0.44334400
   0.29210300  0.82562000  0.82562000
   0.70789700  0.17438000  0.17438000
   0.17438000  0.44334400  0.17438000
   0.70789700  0.44334400  0.17438000
   0.55665600  0.29210300  0.82562000
   0.55665600  0.82562000  0.29210300
   0.73612500  0.01387500  0.01387500
   0.98612500  0.26387500  0.98612500
   0.44334400  0.70789700  0.17438000
   0.17438000  0.70789700  0.17438000
   0.17438000  0.17438000  0.44334400
   0.26387500  0.98612500  0.26387500
   0.01387500  0.73612500  0.73612500
   0.98612500  0.26387500  0.26387500
   0.01387500  0.73612500  0.01387500
   0.82562000  0.29210300  0.55665600
   0.82562000  0.55665600  0.29210300
   0.26387500  0.98612500  0.98612500
   0.17438000  0.17438000  0.70789700
   0.82562000  0.82562000  0.29210300
   0.29210300  0.55665600  0.82562000
   0.98612500  0.98612500  0.26387500
   0.50000000  0.50000000  0.00000000
   0.82562000  0.29210300  0.82562000
   0.26387500  0.26387500  0.98612500
   0.73612500  0.01387500  0.73612500
   0.01387500  0.01387500  0.73612500
   0.17438000  0.70789700  0.44334400
   0.55665600  0.82562000  0.82562000
   0.73612500  0.73612500  0.01387500
   0.29210300  0.82562000  0.55665600
   0.50000000  0.50000000  0.50000000
   0.44334400  0.17438000  0.17438000
   0.44334400  0.17438000  0.70789700
   0.17438000  0.44334400  0.70789700
   0.50000000  0.00000000  0.50000000
   0.82562000  0.82562000  0.55665600
   0.00000000  0.50000000  0.50000000
   0.00000000  0.00000000  0.50000000
   0.50000000  0.00000000  0.00000000
   0.00000000  0.50000000  0.00000000
   0.00000000  0.00000000  0.00000000
 
 position of ions in cartesian coordinates  (Angst):
   9.09816125  9.09816125  9.09816125
   5.45889675  5.45889675  5.45889675
  10.06093595 12.01859823 10.06093595
   4.49612205  8.37934100  6.42167873
  12.01859823  8.13537927  8.13537927
   2.53845977  6.42167873  6.42167873
   4.49612205  2.53845977  4.49612205
   4.49612205  6.42167873  8.37934100
   8.13537927 10.06093595  6.17771700
   8.13537927  6.17771700 10.06093595
   0.20197918  5.45889675  5.45889675
   9.09816125 14.35507882  9.09816125
   6.42167873  4.49612205  8.37934100
   6.42167873  2.53845977  6.42167873
   4.49612205  4.49612205  2.53845977
   9.09816125  3.84124368  9.09816125
  10.71581432  5.45889675  5.45889675
   3.84124368  9.09816125  9.09816125
   5.45889675  0.20197918  5.45889675
   6.17771700 10.06093595  8.13537927
   6.17771700  8.13537927 10.06093595
  14.35507882  9.09816125  9.09816125
   6.42167873  6.42167873  2.53845977
   8.13537927  8.13537927 12.01859823
  10.06093595  8.13537927  6.17771700
   9.09816125  9.09816125 14.35507882
   3.63926450  3.63926450  7.27852900
   8.13537927 12.01859823  8.13537927
   9.09816125  9.09816125  3.84124368
   5.45889675 10.71581432  5.45889675
   5.45889675  5.45889675  0.20197918
   8.37934100  4.49612205  6.42167873
  12.01859823 10.06093595 10.06093595
   5.45889675  5.45889675 10.71581432
  10.06093595  6.17771700  8.13537927
   7.27852900  7.27852900  7.27852900
   2.53845977  4.49612205  4.49612205
   6.42167873  8.37934100  4.49612205
   8.37934100  6.42167873  4.49612205
   3.63926450  7.27852900  3.63926450
  10.06093595 10.06093595 12.01859823
   7.27852900  3.63926450  3.63926450
   3.63926450  3.63926450  0.00000000
   0.00000000  3.63926450  3.63926450
   3.63926450  0.00000000  3.63926450
   0.00000000  0.00000000  0.00000000
 


--------------------------------------------------------------------------------------------------------


 k-point   1 :   0.0833 0.0833 0.0833  plane waves:   20716
 k-point   2 :   0.2500 0.0833 0.0833  plane waves:   20733
 k-point   3 :   0.4167 0.0833 0.0833  plane waves:   20783
 k-point   4 :  -0.4167 0.0833 0.0833  plane waves:   20779
 k-point   5 :  -0.2500 0.0833 0.0833  plane waves:   20755
 k-point   6 :  -0.0833 0.0833 0.0833  plane waves:   20729
 k-point   7 :   0.2500 0.2500 0.0833  plane waves:   20723
 k-point   8 :   0.4167 0.2500 0.0833  plane waves:   20784
 k-point   9 :  -0.4167 0.2500 0.0833  plane waves:   20770
 k-point  10 :  -0.2500 0.2500 0.0833  plane waves:   20762
 k-point  11 :  -0.0833 0.2500 0.0833  plane waves:   20762
 k-point  12 :   0.4167 0.4167 0.0833  plane waves:   20768
 k-point  13 :  -0.4167 0.4167 0.0833  plane waves:   20772
 k-point  14 :  -0.2500 0.4167 0.0833  plane waves:   20777
 k-point  15 :  -0.0833 0.4167 0.0833  plane waves:   20772
 k-point  16 :  -0.4167-0.4167 0.0833  plane waves:   20777
 k-point  17 :  -0.2500-0.4167 0.0833  plane waves:   20762
 k-point  18 :  -0.2500-0.2500 0.0833  plane waves:   20766
 k-point  19 :   0.2500 0.2500 0.2500  plane waves:   20743
 k-point  20 :   0.4167 0.2500 0.2500  plane waves:   20766
 k-point  21 :  -0.4167 0.2500 0.2500  plane waves:   20746
 k-point  22 :  -0.2500 0.2500 0.2500  plane waves:   20766
 k-point  23 :   0.4167 0.4167 0.2500  plane waves:   20784
 k-point  24 :  -0.4167 0.4167 0.2500  plane waves:   20755
 k-point  25 :  -0.2500 0.4167 0.2500  plane waves:   20780
 k-point  26 :  -0.4167-0.4167 0.2500  plane waves:   20779
 k-point  27 :   0.4167 0.4167 0.4167  plane waves:   20765
 k-point  28 :  -0.4167 0.4167 0.4167  plane waves:   20767

 maximum and minimum number of plane-waves per node :     20784    20716

 maximum number of plane-waves:     20784
 maximum index in each direction: 
   IXMAX=   19   IYMAX=   19   IZMAX=   19
   IXMIN=  -19   IYMIN=  -19   IZMIN=  -19


 serial   3D FFT for wavefunctions
 parallel 3D FFT for charge:
    minimum data exchange during FFTs selected (reduces bandwidth)


 total amount of memory used by VASP MPI-rank0   961130. kBytes
=======================================================================

   base      :      30000. kBytes
   nonlr-proj:      34385. kBytes
   fftplans  :      36847. kBytes
   grid      :     132198. kBytes
   one-center:       4521. kBytes
   wavefun   :     723179. kBytes
 
     INWAV:  cpu time      0.0001: real time      0.0004
 Broyden mixing: mesh for mixing (old mesh)
   NGX = 39   NGY = 39   NGZ = 39
  (NGX  =160   NGY  =160   NGZ  =160)
  gives a total of  59319 points

 charge density for first step will be calculated from the start-wavefunctions


--------------------------------------------------------------------------------------------------------


 Maximum index for non-local projection operator         11537
 Maximum index for augmentation-charges          9243 (set IRDMAX)


--------------------------------------------------------------------------------------------------------


 initial charge from wavefunction
 First call to EWALD:  gamma=   0.193
 Maximum number of real-space cells 3x 3x 3
 Maximum number of reciprocal cells 3x 3x 3

    FEWALD:  cpu time      0.0034: real time      0.0034


--------------------------------------- Iteration      1(   1)  ---------------------------------------


    POTLOK:  cpu time      0.1550: real time      0.1787
    SETDIJ:  cpu time      0.0604: real time      0.0604
     EDDAV:  cpu time     14.4412: real time     14.4799
       DOS:  cpu time      0.0022: real time      0.0022
    --------------------------------------------
      LOOP:  cpu time     14.6589: real time     14.7213

 eigenvalue-minimisations  : 30608
 total energy-change (2. order) :-0.9664037E+04  (-0.1971600E+05)
 number of electron     198.0000002 magnetization       0.0000000
 augmentation part        1.1493388 magnetization      -0.0105393

 Free energy of the ion-electron system (eV)
  ---------------------------------------------------
  alpha Z        PSCENC =       271.03059981
  Ewald energy   TEWEN  =     -8798.32088336
  -Hartree energ DENC   =      -121.86669776
  -exchange      EXHF   =         0.00000000
  -V(xc)+E(xc)   XCENC  =      -905.97632351
  PAW double counting   =   2839269.95302418 -2837997.34600879
  entropy T*S    EENTRO =         0.00169876
  eigenvalues    EBANDS =    -14049.12547865
  atomic energy  EATOM  =     12667.61313395
  Solvation  Ediel_sol  =         0.00000000
  ---------------------------------------------------
  free energy    TOTEN  =     -9664.03693536 eV

  energy without entropy =    -9664.03863412  energy(sigma->0) =    -9664.03750162


--------------------------------------------------------------------------------------------------------




--------------------------------------- Iteration      1(   2)  ---------------------------------------


     EDDAV:  cpu time     10.1891: real time     10.1970
       DOS:  cpu time      0.0021: real time      0.0021
    --------------------------------------------
      LOOP:  cpu time     10.1911: real time     10.1991

 eigenvalue-minimisations  : 20088
 total energy-change (2. order) :-0.3449913E+04  (-0.3352538E+04)
 number of electron     198.0000002 magnetization       0.0000000
 augmentation part        1.1493388 magnetization      -0.0105393

 Free energy of the ion-electron system (eV)
  ---------------------------------------------------
  alpha Z        PSCENC =       271.03059981
  Ewald energy   TEWEN  =     -8798.32088336
  -Hartree energ DENC   =      -121.86669776
  -exchange      EXHF   =         0.00000000
  -V(xc)+E(xc)   XCENC  =      -905.97632351
  PAW double counting   =   2839269.95302418 -2837997.34600879
  entropy T*S    EENTRO =         0.00224657
  eigenvalues    EBANDS =    -17499.03855159
  atomic energy  EATOM  =     12667.61313395
  Solvation  Ediel_sol  =         0.00000000
  ---------------------------------------------------
  free energy    TOTEN  =    -13113.94946049 eV

  energy without entropy =   -13113.95170706  energy(sigma->0) =   -13113.95020934


--------------------------------------------------------------------------------------------------------




--------------------------------------- Iteration      1(   3)  ---------------------------------------


     EDDAV:  cpu time     11.6601: real time     11.6672
       DOS:  cpu time      0.0021: real time      0.0021
    --------------------------------------------
      LOOP:  cpu time     11.6622: real time     11.6693

 eigenvalue-minimisations  : 23816
 total energy-change (2. order) :-0.6702149E+03  (-0.4412276E+03)
 number of electron     198.0000002 magnetization       0.0000000
 augmentation part        1.1493388 magnetization      -0.0105393

 Free energy of the ion-electron system (eV)
  ---------------------------------------------------
  alpha Z        PSCENC =       271.03059981
  Ewald energy   TEWEN  =     -8798.32088336
  -Hartree energ DENC   =      -121.86669776
  -exchange      EXHF   =         0.00000000
  -V(xc)+E(xc)   XCENC  =      -905.97632351
  PAW double counting   =   2839269.95302418 -2837997.34600879
  entropy T*S    EENTRO =        -0.24899940
  eigenvalues    EBANDS =    -18169.00216143
  atomic energy  EATOM  =     12667.61313395
  Solvation  Ediel_sol  =         0.00000000
  ---------------------------------------------------
  free energy    TOTEN  =    -13784.16431631 eV

  energy without entropy =   -13783.91531691  energy(sigma->0) =   -13784.08131651


--------------------------------------------------------------------------------------------------------




--------------------------------------- Iteration      1(   4)  ---------------------------------------


     EDDAV:  cpu time     12.1443: real time     12.1518
       DOS:  cpu time      0.0022: real time      0.0022
    --------------------------------------------
      LOOP:  cpu time     12.1465: real time     12.1540

 eigenvalue-minimisations  : 25072
 total energy-change (2. order) :-0.1163387E+03  (-0.1156773E+03)
 number of electron     198.0000002 magnetization       0.0000000
 augmentation part        1.1493388 magnetization      -0.0105393

 Free energy of the ion-electron system (eV)
  ---------------------------------------------------
  alpha Z        PSCENC =       271.03059981
  Ewald energy   TEWEN  =     -8798.32088336
  -Hartree energ DENC   =      -121.86669776
  -exchange      EXHF   =         0.00000000
  -V(xc)+E(xc)   XCENC  =      -905.97632351
  PAW double counting   =   2839269.95302418 -2837997.34600879
  entropy T*S    EENTRO =        -0.34914232
  eigenvalues    EBANDS =    -18285.24071680
  atomic energy  EATOM  =     12667.61313395
  Solvation  Ediel_sol  =         0.00000000
  ---------------------------------------------------
  free energy    TOTEN  =    -13900.50301460 eV

  energy without entropy =   -13900.15387227  energy(sigma->0) =   -13900.38663382


--------------------------------------------------------------------------------------------------------




--------------------------------------- Iteration      1(   5)  ---------------------------------------


     EDDAV:  cpu time     12.9665: real time     12.9757
       DOS:  cpu time      0.0023: real time      0.0023
    CHARGE:  cpu time      0.3688: real time      0.3691
    MIXING:  cpu time      0.0086: real time      0.0086
    --------------------------------------------
      LOOP:  cpu time     13.3462: real time     13.3557

 eigenvalue-minimisations  : 27080
 total energy-change (2. order) :-0.3810801E+01  (-0.3801410E+01)
 number of electron     197.9999914 magnetization      -0.0358672
 augmentation part       47.3572673 magnetization       0.0257790

 Broyden mixing:
  rms(total) = 0.31988E+03    rms(broyden)= 0.31988E+03
  rms(prec ) = 0.32682E+03
  weight for this iteration     100.00

 Free energy of the ion-electron system (eV)
  ---------------------------------------------------
  alpha Z        PSCENC =       271.03059981
  Ewald energy   TEWEN  =     -8798.32088336
  -Hartree energ DENC   =      -121.86669776
  -exchange      EXHF   =         0.00000000
  -V(xc)+E(xc)   XCENC  =      -905.97632351
  PAW double counting   =   2839269.95302418 -2837997.34600879
  entropy T*S    EENTRO =        -0.35395778
  eigenvalues    EBANDS =    -18289.04670215
  atomic energy  EATOM  =     12667.61313395
  Solvation  Ediel_sol  =         0.00000000
  ---------------------------------------------------
  free energy    TOTEN  =    -13904.31381540 eV

  energy without entropy =   -13903.95985762  energy(sigma->0) =   -13904.19582947


--------------------------------------------------------------------------------------------------------




--------------------------------------- Iteration      1(   6)  ---------------------------------------


    POTLOK:  cpu time      0.0182: real time      0.0186
    SETDIJ:  cpu time      0.0606: real time      0.0606
     EDDAV:  cpu time     12.6671: real time     12.6746
       DOS:  cpu time      0.0026: real time      0.0026
    CHARGE:  cpu time      0.3812: real time      0.3814
    MIXING:  cpu time      0.0094: real time      0.0122
    --------------------------------------------
      LOOP:  cpu time     13.1390: real time     13.1500

 eigenvalue-minimisations  : 26200
 total energy-change (2. order) : 0.1302977E+05  (-0.4456403E+04)
 number of electron     197.9999954 magnetization      -0.1036858
 augmentation part       25.0001981 magnetization       0.0825535

 Broyden mixing:
  rms(total) = 0.12405E+03    rms(broyden)= 0.12405E+03
  rms(prec ) = 0.12714E+03
  weight for this iteration     100.00

 eigenvalues of (default mixing * dielectric matrix)
  average eigenvalue GAMMA=   0.7292
  0.7292

 Free energy of the ion-electron system (eV)
  ---------------------------------------------------
  alpha Z        PSCENC =       271.03059981
  Ewald energy   TEWEN  =     -8798.32088336
  -Hartree energ DENC   =     -5040.64083090
  -exchange      EXHF   =         0.00000000
  -V(xc)+E(xc)   XCENC  =      -734.67485177
  PAW double counting   =   2766934.12565187 -2765823.25074491
  entropy T*S    EENTRO =        -0.00597263
  eigenvalues    EBANDS =      -350.41697189
  atomic energy  EATOM  =     12667.61313395
  Solvation  Ediel_sol  =         0.00000000
  ---------------------------------------------------
  free energy    TOTEN  =      -874.54086983 eV

  energy without entropy =     -874.53489720  energy(sigma->0) =     -874.53887895


--------------------------------------------------------------------------------------------------------




--------------------------------------- Iteration      1(   7)  ---------------------------------------


    POTLOK:  cpu time      0.0185: real time      0.0188
    SETDIJ:  cpu time      0.0609: real time      0.0609
     EDDAV:  cpu time     13.9421: real time     13.9504
       DOS:  cpu time      0.0027: real time      0.0027
    CHARGE:  cpu time      0.3900: real time      0.3901
    MIXING:  cpu time      0.0089: real time      0.0089
    --------------------------------------------
      LOOP:  cpu time     14.4230: real time     14.4318

 eigenvalue-minimisations  : 29512
 total energy-change (2. order) : 0.2102887E+03  (-0.1009747E+04)
 number of electron     197.9999979 magnetization      -0.1239069
 augmentation part       36.2020431 magnetization       0.1070025

 Broyden mixing:
  rms(total) = 0.98589E+02    rms(broyden)= 0.98589E+02
  rms(prec ) = 0.10089E+03
  weight for this iteration     100.00

 eigenvalues of (default mixing * dielectric matrix)
  average eigenvalue GAMMA=   0.5828
  0.5828  0.5828

 Free energy of the ion-electron system (eV)
  ---------------------------------------------------
  alpha Z        PSCENC =       271.03059981
  Ewald energy   TEWEN  =     -8798.32088336
  -Hartree energ DENC   =     -4540.28019970
  -exchange      EXHF   =         0.00000000
  -V(xc)+E(xc)   XCENC  =      -758.43340698
  PAW double counting   =   1618187.59774932 -1616997.74452098
  entropy T*S    EENTRO =         0.00024915
  eigenvalues    EBANDS =      -695.71490948
  atomic energy  EATOM  =     12667.61313395
  Solvation  Ediel_sol  =         0.00000000
  ---------------------------------------------------
  free energy    TOTEN  =      -664.25218827 eV

  energy without entropy =     -664.25243742  energy(sigma->0) =     -664.25227132


--------------------------------------------------------------------------------------------------------




--------------------------------------- Iteration      1(   8)  ---------------------------------------


    POTLOK:  cpu time      0.0177: real time      0.0187
    SETDIJ:  cpu time      0.0606: real time      0.0606
     EDDAV:  cpu time     15.1446: real time     15.1518
       DOS:  cpu time      0.0032: real time      0.0032
    CHARGE:  cpu time      0.3973: real time      0.3975
    MIXING:  cpu time      0.0091: real time      0.0091
    --------------------------------------------
      LOOP:  cpu time     15.6325: real time     15.6410

 eigenvalue-minimisations  : 32304
 total energy-change (2. order) : 0.5612050E+02  (-0.7566538E+03)
 number of electron     197.9999977 magnetization      -0.1646752
 augmentation part       11.5464777 magnetization       0.0294400

 Broyden mixing:
  rms(total) = 0.87507E+02    rms(broyden)= 0.87507E+02
  rms(prec ) = 0.88689E+02
  weight for this iteration     100.00

 eigenvalues of (default mixing * dielectric matrix)
  average eigenvalue GAMMA=   0.9602
  1.2881  1.2881  0.3043

 Free energy of the ion-electron system (eV)
  ---------------------------------------------------
  alpha Z        PSCENC =       271.03059981
  Ewald energy   TEWEN  =     -8798.32088336
  -Hartree energ DENC   =     -4826.92995475
  -exchange      EXHF   =         0.00000000
  -V(xc)+E(xc)   XCENC  =      -752.07807672
  PAW double counting   =   1274589.41007113 -1273576.37579020
  entropy T*S    EENTRO =         0.00896519
  eigenvalues    EBANDS =      -182.48975087
  atomic energy  EATOM  =     12667.61313395
  Solvation  Ediel_sol  =         0.00000000
  ---------------------------------------------------
  free energy    TOTEN  =      -608.13168582 eV

  energy without entropy =     -608.14065101  energy(sigma->0) =     -608.13467422


--------------------------------------------------------------------------------------------------------




--------------------------------------- Iteration      1(   9)  ---------------------------------------


    POTLOK:  cpu time      0.0178: real time      0.0187
    SETDIJ:  cpu time      0.0603: real time      0.0603
     EDDAV:  cpu time     15.0178: real time     15.0265
       DOS:  cpu time      0.0028: real time      0.0028
    CHARGE:  cpu time      0.3966: real time      0.3968
    MIXING:  cpu time      0.0092: real time      0.0092
    --------------------------------------------
      LOOP:  cpu time     15.5045: real time     15.5144

 eigenvalue-minimisations  : 31984
 total energy-change (2. order) :-0.1150267E+03  (-0.6111175E+03)
 number of electron     197.9999920 magnetization      -0.1276409
 augmentation part       67.0960126 magnetization      -0.0839342

 Broyden mixing:
  rms(total) = 0.30125E+02    rms(broyden)= 0.30125E+02
  rms(prec ) = 0.36871E+02
  weight for this iteration     100.00

 eigenvalues of (default mixing * dielectric matrix)
  average eigenvalue GAMMA=   1.1639
  2.9326  0.9105  0.5134  0.2993

 Free energy of the ion-electron system (eV)
  ---------------------------------------------------
  alpha Z        PSCENC =       271.03059981
  Ewald energy   TEWEN  =     -8798.32088336
  -Hartree energ DENC   =     -3429.04606030
  -exchange      EXHF   =         0.00000000
  -V(xc)+E(xc)   XCENC  =      -797.00645879
  PAW double counting   =    415543.50275796  -414423.29807100
  entropy T*S    EENTRO =        -0.02040592
  eigenvalues    EBANDS =     -1757.61301107
  atomic energy  EATOM  =     12667.61313395
  Solvation  Ediel_sol  =         0.00000000
  ---------------------------------------------------
  free energy    TOTEN  =      -723.15839872 eV

  energy without entropy =     -723.13799279  energy(sigma->0) =     -723.15159674


--------------------------------------------------------------------------------------------------------




--------------------------------------- Iteration      1(  10)  ---------------------------------------


    POTLOK:  cpu time      0.0182: real time      0.0194
    SETDIJ:  cpu time      0.0590: real time      0.0590
     EDDAV:  cpu time     11.9858: real time     11.9930
       DOS:  cpu time      0.0032: real time      0.0032
    CHARGE:  cpu time      0.4090: real time      0.4092
    MIXING:  cpu time      0.0095: real time      0.0095
    --------------------------------------------
      LOOP:  cpu time     12.4847: real time     12.4933

 eigenvalue-minimisations  : 24576
 total energy-change (2. order) : 0.4893750E+03  (-0.2293722E+03)
 number of electron     197.9999972 magnetization      -0.0772746
 augmentation part       16.3217205 magnetization      -0.0875365

 Broyden mixing:
  rms(total) = 0.12510E+02    rms(broyden)= 0.12510E+02
  rms(prec ) = 0.15753E+02
  weight for this iteration     100.00

 eigenvalues of (default mixing * dielectric matrix)
  average eigenvalue GAMMA=   1.0336
  2.6128  1.0192  0.6281  0.6281  0.2798

 Free energy of the ion-electron system (eV)
  ---------------------------------------------------
  alpha Z        PSCENC =       271.03059981
  Ewald energy   TEWEN  =     -8798.32088336
  -Hartree energ DENC   =     -4245.82307789
  -exchange      EXHF   =         0.00000000
  -V(xc)+E(xc)   XCENC  =      -769.00815360
  PAW double counting   =     14465.36594139   -13517.38369952
  entropy T*S    EENTRO =         0.00224486
  eigenvalues    EBANDS =      -307.25955432
  atomic energy  EATOM  =     12667.61313395
  Solvation  Ediel_sol  =         0.00000000
  ---------------------------------------------------
  free energy    TOTEN  =      -233.78344868 eV

  energy without entropy =     -233.78569354  energy(sigma->0) =     -233.78419697


--------------------------------------------------------------------------------------------------------




--------------------------------------- Iteration      1(  11)  ---------------------------------------


    POTLOK:  cpu time      0.0177: real time      0.0189
    SETDIJ:  cpu time      0.0605: real time      0.0605
     EDDAV:  cpu time     12.1249: real time     12.1334
       DOS:  cpu time      0.0031: real time      0.0031
    CHARGE:  cpu time      0.4103: real time      0.4105
    MIXING:  cpu time      0.0100: real time      0.0100
    --------------------------------------------
      LOOP:  cpu time     12.6265: real time     12.6364

 eigenvalue-minimisations  : 24808
 total energy-change (2. order) :-0.1285859E+03  (-0.2449431E+02)
 number of electron     197.9999971 magnetization      -0.0766939
 augmentation part       38.3337811 magnetization      -0.0379136

 Broyden mixing:
  rms(total) = 0.11093E+02    rms(broyden)= 0.11093E+02
  rms(prec ) = 0.17113E+02
  weight for this iteration     100.00

 eigenvalues of (default mixing * dielectric matrix)
  average eigenvalue GAMMA=   0.8673
  2.6084  1.0216  0.6301  0.6301  0.2798  0.0338

 Free energy of the ion-electron system (eV)
  ---------------------------------------------------
  alpha Z        PSCENC =       271.03059981
  Ewald energy   TEWEN  =     -8798.32088336
  -Hartree energ DENC   =     -4120.74307440
  -exchange      EXHF   =         0.00000000
  -V(xc)+E(xc)   XCENC  =      -774.99514627
  PAW double counting   =     17468.15791778   -16407.73526566
  entropy T*S    EENTRO =        -0.03749407
  eigenvalues    EBANDS =      -667.33917907
  atomic energy  EATOM  =     12667.61313395
  Solvation  Ediel_sol  =         0.00000000
  ---------------------------------------------------
  free energy    TOTEN  =      -362.36939129 eV

  energy without entropy =     -362.33189722  energy(sigma->0) =     -362.35689327


--------------------------------------------------------------------------------------------------------




--------------------------------------- Iteration      1(  12)  ---------------------------------------


    POTLOK:  cpu time      0.0183: real time      0.0190
    SETDIJ:  cpu time      0.0612: real time      0.0613
     EDDAV:  cpu time     11.9875: real time     11.9943
       DOS:  cpu time      0.0030: real time      0.0030
    CHARGE:  cpu time      0.4086: real time      0.4087
    MIXING:  cpu time      0.0102: real time      0.0102
    --------------------------------------------
      LOOP:  cpu time     12.4887: real time     12.4966

 eigenvalue-minimisations  : 24608
 total energy-change (2. order) : 0.2222555E+02  (-0.6306248E+01)
 number of electron     197.9999972 magnetization      -0.1028277
 augmentation part       37.6088248 magnetization      -0.0884496

 Broyden mixing:
  rms(total) = 0.11494E+02    rms(broyden)= 0.11494E+02
  rms(prec ) = 0.17416E+02
  weight for this iteration     100.00

 eigenvalues of (default mixing * dielectric matrix)
  average eigenvalue GAMMA=   0.8418
  2.7333  0.9706  0.6796  0.5169  0.5169  0.2738  0.2015

 Free energy of the ion-electron system (eV)
  ---------------------------------------------------
  alpha Z        PSCENC =       271.03059981
  Ewald energy   TEWEN  =     -8798.32088336
  -Hartree energ DENC   =     -4135.05115518
  -exchange      EXHF   =         0.00000000
  -V(xc)+E(xc)   XCENC  =      -774.50451847
  PAW double counting   =     16939.50733105   -15887.29160863
  entropy T*S    EENTRO =        -0.04164847
  eigenvalues    EBANDS =      -623.08509426
  atomic energy  EATOM  =     12667.61313395
  Solvation  Ediel_sol  =         0.00000000
  ---------------------------------------------------
  free energy    TOTEN  =      -340.14384356 eV

  energy without entropy =     -340.10219509  energy(sigma->0) =     -340.12996074


--------------------------------------------------------------------------------------------------------




--------------------------------------- Iteration      1(  13)  ---------------------------------------


    POTLOK:  cpu time      0.0177: real time      0.0188
    SETDIJ:  cpu time      0.0597: real time      0.0597
     EDDAV:  cpu time     11.7998: real time     11.8062
       DOS:  cpu time      0.0031: real time      0.0031
    CHARGE:  cpu time      0.4092: real time      0.4095
    MIXING:  cpu time      0.0104: real time      0.0104
    --------------------------------------------
      LOOP:  cpu time     12.2999: real time     12.3077

 eigenvalue-minimisations  : 24336
 total energy-change (2. order) : 0.7084498E+02  (-0.3185620E+01)
 number of electron     197.9999968 magnetization      -0.0101689
 augmentation part       39.6630575 magnetization       0.0174110

 Broyden mixing:
  rms(total) = 0.11815E+02    rms(broyden)= 0.11815E+02
  rms(prec ) = 0.16941E+02
  weight for this iteration     100.00

 eigenvalues of (default mixing * dielectric matrix)
  average eigenvalue GAMMA=   0.8335
  2.6099  0.9837  0.7552  0.5293  0.5293  0.2763  0.4923  0.4923

 Free energy of the ion-electron system (eV)
  ---------------------------------------------------
  alpha Z        PSCENC =       271.03059981
  Ewald energy   TEWEN  =     -8798.32088336
  -Hartree energ DENC   =     -4077.54120796
  -exchange      EXHF   =         0.00000000
  -V(xc)+E(xc)   XCENC  =      -775.87449657
  PAW double counting   =     13742.67512211   -12741.57175770
  entropy T*S    EENTRO =        -0.04947535
  eigenvalues    EBANDS =      -557.25989568
  atomic energy  EATOM  =     12667.61313395
  Solvation  Ediel_sol  =         0.00000000
  ---------------------------------------------------
  free energy    TOTEN  =      -269.29886074 eV

  energy without entropy =     -269.24938539  energy(sigma->0) =     -269.28236896


--------------------------------------------------------------------------------------------------------




--------------------------------------- Iteration      1(  14)  ---------------------------------------


    POTLOK:  cpu time      0.0183: real time      0.0187
[...]
  alpha Z        PSCENC =       271.03059981
  Ewald energy   TEWEN  =     -8798.32088336
  -Hartree energ DENC   =     -4251.04819855
  -exchange      EXHF   =         0.00000000
  -V(xc)+E(xc)   XCENC  =      -772.92644780
  PAW double counting   =     16178.46404235   -15092.13151268
  entropy T*S    EENTRO =         0.02127515
  eigenvalues    EBANDS = ******************
  atomic energy  EATOM  =     12667.61313395
  Solvation  Ediel_sol  =         0.00000000
  ---------------------------------------------------
  free energy    TOTEN  = ****************** eV

  energy without entropy =******************  energy(sigma->0) =******************


--------------------------------------------------------------------------------------------------------




--------------------------------------- Iteration      1( 199)  ---------------------------------------


    POTLOK:  cpu time      0.0184: real time      0.0192
    SETDIJ:  cpu time      0.0604: real time      0.0604
     EDDAV:  cpu time     12.7605: real time     12.7682
       DOS:  cpu time      0.0026: real time      0.0026
    CHARGE:  cpu time      0.4077: real time      0.4078
    MIXING:  cpu time      0.0290: real time      0.0290
    --------------------------------------------
      LOOP:  cpu time     13.2786: real time     13.2871

 eigenvalue-minimisations  : 26512
 total energy-change (2. order) : 0.1590976E+09  (-0.7675307E+08)
 number of electron     197.8696264 magnetization       0.1370164
 augmentation part       29.0830135 magnetization       1.3633777

 Broyden mixing:
  rms(total) = 0.15190E+02    rms(broyden)= 0.15190E+02
  rms(prec ) = 0.15299E+02
  weight for this iteration     100.00

 eigenvalues of (default mixing * dielectric matrix)
  average eigenvalue GAMMA=   0.1718
  0.6235  0.6235  0.4904  0.4718  0.4718  0.4529  0.4529  0.3617  0.2980  0.2980
  0.2962  0.2962  0.1969  0.1969  0.2152  0.2152  0.1374  0.1913  0.1913  0.1652
  0.1652  0.1296  0.1296  0.1015  0.0692  0.0692  0.0485  0.0485  0.0382  0.0382
  0.0167  0.0167  0.0110  0.0055  0.0055  0.0050  0.0050  0.0047  0.0021  0.0021
  0.0012  0.0012  0.0000  0.0000

 Free energy of the ion-electron system (eV)
  ---------------------------------------------------
  alpha Z        PSCENC =       271.03059981
  Ewald energy   TEWEN  =     -8798.32088336
  -Hartree energ DENC   =     -4251.07036987
  -exchange      EXHF   =         0.00000000
  -V(xc)+E(xc)   XCENC  =      -773.05542332
  PAW double counting   =     16180.29530166   -15094.07300862
  entropy T*S    EENTRO =         0.04601079
  eigenvalues    EBANDS = -76755807.08001445
  atomic energy  EATOM  =     12667.61313395
  Solvation  Ediel_sol  =         0.00000000
  ---------------------------------------------------
  free energy    TOTEN  = -76755604.61465341 eV

  energy without entropy =-76755604.66066420  energy(sigma->0) =-76755604.62999034


--------------------------------------------------------------------------------------------------------




--------------------------------------- Iteration      1( 200)  ---------------------------------------


    POTLOK:  cpu time      0.0182: real time      0.0190
    SETDIJ:  cpu time      0.0607: real time      0.0609
     EDDAV:  cpu time     12.6344: real time     12.6411
       DOS:  cpu time      0.0024: real time      0.0024
    CHARGE:  cpu time      0.4087: real time      0.4089
    MIXING:  cpu time      0.0300: real time      0.0300
    --------------------------------------------
      LOOP:  cpu time     13.1544: real time     13.1622

 eigenvalue-minimisations  : 26144
 total energy-change (2. order) :-0.1363498E+09  (-0.2131047E+09)
 number of electron     197.6109151 magnetization       0.1467433
 augmentation part       29.2822413 magnetization       1.0737264

 Broyden mixing:
  rms(total) = 0.14425E+02    rms(broyden)= 0.14425E+02
  rms(prec ) = 0.14589E+02
  weight for this iteration     100.00

 eigenvalues of (default mixing * dielectric matrix)
  average eigenvalue GAMMA=   0.1411
  0.5785  0.4288  0.4288  0.3544  0.3544  0.3465  0.3105  0.3105  0.2892  0.2668
  0.2668  0.1850  0.1850  0.1895  0.1561  0.1389  0.1389  0.1107  0.1107  0.0932
  0.0932  0.0500  0.0500  0.0380  0.0380  0.0287  0.0256  0.0256  0.0163  0.0163
  0.0056  0.0056  0.0029  0.0029  0.0010  0.0008  0.0010  0.0000  0.0004  0.0004

 Free energy of the ion-electron system (eV)
  ---------------------------------------------------
  alpha Z        PSCENC =       271.03059981
  Ewald energy   TEWEN  =     -8798.32088336
  -Hartree energ DENC   =     -4250.97548285
  -exchange      EXHF   =         0.00000000
  -V(xc)+E(xc)   XCENC  =      -771.92761224
  PAW double counting   =     16178.24902536   -15091.60010770
  entropy T*S    EENTRO =         0.01986190
  eigenvalues    EBANDS = ******************
  atomic energy  EATOM  =     12667.61313395
  Solvation  Ediel_sol  =         0.00000000
  ---------------------------------------------------
  free energy    TOTEN  = ****************** eV

  energy without entropy =******************  energy(sigma->0) =******************


--------------------------------------------------------------------------------------------------------




--------------------------------------- Iteration      1( 201)  ---------------------------------------


    POTLOK:  cpu time      0.0185: real time      0.0194
    SETDIJ:  cpu time      0.0617: real time      0.0617
     EDDAV:  cpu time     12.4861: real time     12.4925
       DOS:  cpu time      0.0025: real time      0.0025
    CHARGE:  cpu time      0.4105: real time      0.4107
    MIXING:  cpu time      0.0255: real time      0.0255
    --------------------------------------------
      LOOP:  cpu time     13.0049: real time     13.0124

 eigenvalue-minimisations  : 25856
 total energy-change (2. order) : 0.1180357E+07  (-0.2119245E+09)
 number of electron     197.1877480 magnetization       0.1742342
 augmentation part       28.8419894 magnetization       1.3121031

 Broyden mixing:
  rms(total) = 0.15333E+02    rms(broyden)= 0.15333E+02
  rms(prec ) = 0.15463E+02
  weight for this iteration     100.00

 eigenvalues of (default mixing * dielectric matrix)
  average eigenvalue GAMMA=   0.1436
  0.6609  0.4448  0.4448  0.3180  0.3180  0.3485  0.3485  0.2739  0.2715  0.2715
  0.2652  0.2652  0.2151  0.1641  0.1641  0.1571  0.1571  0.1349  0.0847  0.0847
  0.0829  0.0829  0.0761  0.0337  0.0346  0.0346  0.0294  0.0294  0.0269  0.0269
  0.0146  0.0070  0.0070  0.0033  0.0033  0.0008  0.0009  0.0007  0.0007  0.0000
  0.0001

 Free energy of the ion-electron system (eV)
  ---------------------------------------------------
  alpha Z        PSCENC =       271.03059981
  Ewald energy   TEWEN  =     -8798.32088336
  -Hartree energ DENC   =     -4251.60742029
  -exchange      EXHF   =         0.00000000
  -V(xc)+E(xc)   XCENC  =      -772.67510310
  PAW double counting   =     16153.27007359   -15066.70055493
  entropy T*S    EENTRO =         0.05435849
  eigenvalues    EBANDS = ******************
  atomic energy  EATOM  =     12667.61313395
  Solvation  Ediel_sol  =         0.00000000
  ---------------------------------------------------
  free energy    TOTEN  = ****************** eV

  energy without entropy =******************  energy(sigma->0) =******************


--------------------------------------------------------------------------------------------------------




--------------------------------------- Iteration      1( 202)  ---------------------------------------


    POTLOK:  cpu time      0.0184: real time      0.0188
    SETDIJ:  cpu time      0.0608: real time      0.0608
     EDDAV:  cpu time     12.7864: real time     12.7933
       DOS:  cpu time      0.0026: real time      0.0026
    CHARGE:  cpu time      0.4079: real time      0.4081
    MIXING:  cpu time      0.0274: real time      0.0274
    --------------------------------------------
      LOOP:  cpu time     13.3034: real time     13.3110

 eigenvalue-minimisations  : 26536
 total energy-change (2. order) :-0.3531225E+09  (-0.5650468E+09)
 number of electron     196.7394319 magnetization       0.1739923
 augmentation part       29.0197214 magnetization       1.5692973

 Broyden mixing:
  rms(total) = 0.15059E+02    rms(broyden)= 0.15058E+02
  rms(prec ) = 0.15245E+02
  weight for this iteration     100.00

 eigenvalues of (default mixing * dielectric matrix)
  average eigenvalue GAMMA=   0.1452
  0.6510  0.4587  0.4587  0.3616  0.3616  0.2754  0.2703  0.2703  0.2786  0.2786
  0.2880  0.2880  0.2100  0.1562  0.1562  0.1693  0.1693  0.1595  0.1595  0.1276
  0.0954  0.0811  0.0811  0.0611  0.0304  0.0304  0.0295  0.0315  0.0315  0.0194
  0.0167  0.0167  0.0068  0.0068  0.0044  0.0044  0.0008  0.0008  0.0004  0.0004
  0.0001  0.0001

 Free energy of the ion-electron system (eV)
  ---------------------------------------------------
  alpha Z        PSCENC =       271.03059981
  Ewald energy   TEWEN  =     -8798.32088336
  -Hartree energ DENC   =     -4251.72210046
  -exchange      EXHF   =         0.00000000
  -V(xc)+E(xc)   XCENC  =      -773.87569406
  PAW double counting   =     16157.77780921   -15070.46031236
  entropy T*S    EENTRO =         0.03559891
  eigenvalues    EBANDS = ******************
  atomic energy  EATOM  =     12667.61313395
  Solvation  Ediel_sol  =         0.00000000
  ---------------------------------------------------
  free energy    TOTEN  = ****************** eV

  energy without entropy =******************  energy(sigma->0) =******************


--------------------------------------------------------------------------------------------------------




--------------------------------------- Iteration      1( 203)  ---------------------------------------


    POTLOK:  cpu time      0.0184: real time      0.0190
    SETDIJ:  cpu time      0.0616: real time      0.0617
     EDDAV:  cpu time     12.8203: real time     12.8267
       DOS:  cpu time      0.0025: real time      0.0025
    CHARGE:  cpu time      0.4114: real time      0.4116
    MIXING:  cpu time      0.0274: real time      0.0275
    --------------------------------------------
      LOOP:  cpu time     13.3418: real time     13.3490

 eigenvalue-minimisations  : 26608
 total energy-change (2. order) : 0.3425629E+09  (-0.2162070E+09)
 number of electron     196.8197032 magnetization       0.2354459
 augmentation part       29.0359384 magnetization       2.1558656

 Broyden mixing:
  rms(total) = 0.16194E+02    rms(broyden)= 0.16194E+02
  rms(prec ) = 0.16375E+02
  weight for this iteration     100.00

 eigenvalues of (default mixing * dielectric matrix)
  average eigenvalue GAMMA=   0.1470
  0.6783  0.4388  0.4388  0.3699  0.3699  0.3733  0.2986  0.2986  0.2953  0.2953
  0.2423  0.1966  0.1966  0.1621  0.1621  0.2150  0.1615  0.1615  0.1544  0.1428
  0.1428  0.1092  0.0852  0.0475  0.0475  0.0341  0.0316  0.0316  0.0275  0.0275
  0.0257  0.0190  0.0161  0.0074  0.0074  0.0031  0.0031  0.0010  0.0006  0.0006
  0.0002  0.0002  0.0001

 Free energy of the ion-electron system (eV)
  ---------------------------------------------------
  alpha Z        PSCENC =       271.03059981
  Ewald energy   TEWEN  =     -8798.32088336
  -Hartree energ DENC   =     -4251.70415410
  -exchange      EXHF   =         0.00000000
  -V(xc)+E(xc)   XCENC  =      -775.14290994
  PAW double counting   =     16160.16279896   -15073.00118760
  entropy T*S    EENTRO =         0.03967485
  eigenvalues    EBANDS = ******************
  atomic energy  EATOM  =     12667.61313395
  Solvation  Ediel_sol  =         0.00000000
  ---------------------------------------------------
  free energy    TOTEN  = ****************** eV

  energy without entropy =******************  energy(sigma->0) =******************


--------------------------------------------------------------------------------------------------------




--------------------------------------- Iteration      1( 204)  ---------------------------------------


    POTLOK:  cpu time      0.0184: real time      0.0191
    SETDIJ:  cpu time      0.0617: real time      0.0618
     EDDAV:  cpu time     12.7288: real time     12.7361
       DOS:  cpu time      0.0025: real time      0.0025
    CHARGE:  cpu time      0.4086: real time      0.4088
    MIXING:  cpu time      0.0277: real time      0.0279
    --------------------------------------------
      LOOP:  cpu time     13.2478: real time     13.2561

 eigenvalue-minimisations  : 26384
 total energy-change (2. order) :-0.4252994E+09  (-0.6477829E+09)
 number of electron     196.6831926 magnetization       0.2693932
 augmentation part       29.2298479 magnetization       2.0693982

 Broyden mixing:
  rms(total) = 0.15632E+02    rms(broyden)= 0.15632E+02
  rms(prec ) = 0.15855E+02
  weight for this iteration     100.00

 eigenvalues of (default mixing * dielectric matrix)
  average eigenvalue GAMMA=   0.1517
  0.6424  0.3896  0.3896  0.4298  0.4298  0.3792  0.3548  0.3548  0.3266  0.3266
  0.2226  0.2226  0.2304  0.2304  0.2377  0.1652  0.1652  0.1857  0.1471  0.1471
  0.1072  0.1072  0.0767  0.0767  0.0491  0.0391  0.0328  0.0328  0.0297  0.0297
  0.0249  0.0254  0.0254  0.0166  0.0088  0.0088  0.0018  0.0018  0.0012  0.0012
  0.0011  0.0001  0.0001  0.0002

 Free energy of the ion-electron system (eV)
  ---------------------------------------------------
  alpha Z        PSCENC =       271.03059981
  Ewald energy   TEWEN  =     -8798.32088336
  -Hartree energ DENC   =     -4251.46130415
  -exchange      EXHF   =         0.00000000
  -V(xc)+E(xc)   XCENC  =      -774.91069663
  PAW double counting   =     16152.77425114   -15065.76885411
  entropy T*S    EENTRO =         0.03033185
  eigenvalues    EBANDS = ******************
  atomic energy  EATOM  =     12667.61313395
  Solvation  Ediel_sol  =         0.00000000
  ---------------------------------------------------
  free energy    TOTEN  = ****************** eV

  energy without entropy =******************  energy(sigma->0) =******************


--------------------------------------------------------------------------------------------------------




--------------------------------------- Iteration      1( 205)  ---------------------------------------


    POTLOK:  cpu time      0.0185: real time      0.0191
    SETDIJ:  cpu time      0.0611: real time      0.0611
     EDDAV:  cpu time     12.8150: real time     12.8213
       DOS:  cpu time      0.0025: real time      0.0025
    CHARGE:  cpu time      0.4077: real time      0.4079
    MIXING:  cpu time      0.0313: real time      0.0313
    --------------------------------------------
      LOOP:  cpu time     13.3362: real time     13.3433

 eigenvalue-minimisations  : 26616
 total energy-change (2. order) : 0.2123860E+09  (-0.4353834E+09)
 number of electron     196.5084523 magnetization       0.6123333
 augmentation part       28.7667774 magnetization       2.7065686

 Broyden mixing:
  rms(total) = 0.17211E+02    rms(broyden)= 0.17211E+02
  rms(prec ) = 0.17359E+02
  weight for this iteration     100.00

 eigenvalues of (default mixing * dielectric matrix)
  average eigenvalue GAMMA=   0.1377
  0.5763  0.3806  0.3806  0.3691  0.3691  0.3742  0.3492  0.2642  0.2642  0.2427
  0.2427  0.1700  0.1700  0.1889  0.1889  0.1434  0.1246  0.1246  0.1062  0.1062
  0.0625  0.0625  0.0492  0.0492  0.0333  0.0333  0.0250  0.0140  0.0140  0.0094
  0.0053  0.0053  0.0031  0.0025  0.0025  0.0009  0.0005  0.0005  0.0003  0.0000

 Free energy of the ion-electron system (eV)
  ---------------------------------------------------
  alpha Z        PSCENC =       271.03059981
  Ewald energy   TEWEN  =     -8798.32088336
  -Hartree energ DENC   =     -4251.41547810
  -exchange      EXHF   =         0.00000000
  -V(xc)+E(xc)   XCENC  =      -775.29194688
  PAW double counting   =     16141.52402964   -15054.96161315
  entropy T*S    EENTRO =         0.05608289
  eigenvalues    EBANDS = ******************
  atomic energy  EATOM  =     12667.61313395
  Solvation  Ediel_sol  =         0.00000000
  ---------------------------------------------------
  free energy    TOTEN  = ****************** eV

  energy without entropy =******************  energy(sigma->0) =******************


--------------------------------------------------------------------------------------------------------




--------------------------------------- Iteration      1( 206)  ---------------------------------------


    POTLOK:  cpu time      0.0183: real time      0.0194
    SETDIJ:  cpu time      0.0610: real time      0.0610
     EDDAV:  cpu time     12.6818: real time     12.6896
       DOS:  cpu time      0.0026: real time      0.0026
    CHARGE:  cpu time      0.4082: real time      0.4084
    MIXING:  cpu time      0.0270: real time      0.0270
    --------------------------------------------
      LOOP:  cpu time     13.1989: real time     13.2081

 eigenvalue-minimisations  : 26272
 total energy-change (2. order) :-0.1259868E+10  (-0.1695256E+10)
 number of electron     196.2212091 magnetization       0.5789863
 augmentation part       29.6593095 magnetization       2.5591003

 Broyden mixing:
  rms(total) = 0.19203E+02    rms(broyden)= 0.19203E+02
  rms(prec ) = 0.19412E+02
  weight for this iteration     100.00

 eigenvalues of (default mixing * dielectric matrix)
  average eigenvalue GAMMA=   0.1412
  0.5680  0.3961  0.3961  0.3880  0.3880  0.3674  0.3674  0.2573  0.2573  0.2367
  0.2367  0.1684  0.1684  0.2297  0.2297  0.1656  0.1656  0.1260  0.1173  0.1173
  0.0878  0.0561  0.0561  0.0468  0.0468  0.0317  0.0317  0.0237  0.0183  0.0105
  0.0105  0.0053  0.0045  0.0045  0.0021  0.0015  0.0015  0.0005  0.0005  0.0001
  0.0001

 Free energy of the ion-electron system (eV)
  ---------------------------------------------------
  alpha Z        PSCENC =       271.03059981
  Ewald energy   TEWEN  =     -8798.32088336
  -Hartree energ DENC   =     -4252.20023936
  -exchange      EXHF   =         0.00000000
  -V(xc)+E(xc)   XCENC  =      -775.77803564
  PAW double counting   =     16105.33431323   -15017.21897235
  entropy T*S    EENTRO =         0.03708138
  eigenvalues    EBANDS = ******************
  atomic energy  EATOM  =     12667.61313395
  Solvation  Ediel_sol  =         0.00000000
  ---------------------------------------------------
  free energy    TOTEN  = ****************** eV

  energy without entropy =******************  energy(sigma->0) =******************


--------------------------------------------------------------------------------------------------------




--------------------------------------- Iteration      1( 207)  ---------------------------------------


    POTLOK:  cpu time      0.0183: real time      0.0191
    SETDIJ:  cpu time      0.0616: real time      0.0616
 -----------------------------------------------------------------------------
|                                                                             |
|     EEEEEEE  RRRRRR   RRRRRR   OOOOOOO  RRRRRR      ###     ###     ###     |
|     E        R     R  R     R  O     O  R     R     ###     ###     ###     |
|     E        R     R  R     R  O     O  R     R     ###     ###     ###     |
|     EEEEE    RRRRRR   RRRRRR   O     O  RRRRRR       #       #       #      |
|     E        R   R    R   R    O     O  R   R                               |
|     E        R    R   R    R   O     O  R    R      ###     ###     ###     |
|     EEEEEEE  R     R  R     R  OOOOOOO  R     R     ###     ###     ###     |
|                                                                             |
|     Error EDDDAV: Call to ZHEGV failed. Returncode = 900 2 16               |
|                                                                             |
|       ---->  I REFUSE TO CONTINUE WITH THIS SICK JOB ... BYE!!! <----       |
|                                                                             |
 -----------------------------------------------------------------------------

