 vasp.6.3.2 27Jun22 (build Jul  3 2023 11:46:21) complex                         
 executed on    LinuxNV_CrayMPICH date 2024.04.21  22:17:09
 running on    4 total cores
 distrk:  each k-point on    4 cores,    1 groups
 distr:  one band on NCORE=   1 cores,    4 groups


--------------------------------------------------------------------------------------------------------


 INCAR:
   ADDGRID = True
   ALGO = Normal
   EDIFF = 0.001
   ENCUT = 520.0
   IBRION = -1
   ICHARG = 0
   ISIF = 3
   ISMEAR = -5
   ISPIN = 2
   KPOINT_BSE = -1 0 0 0
   LAECHG = True
   LASPH = True
   LCHARG = True
   LELF = True
   LORBIT = 11
   LREAL = Auto
   LVHAR = True
   LWAVE = False
   MAGMOM = 4*7.0 16*0.6
   NELM = 1000
   NSW = 0
   PREC = accurate
   SIGMA = 0.05

 POTCAR:    PAW_PBE Eu 23Dec2003                  
 POTCAR:    PAW_PBE Sc_sv 07Sep2000               
 POTCAR:    PAW_PBE O 08Apr2002                   
 POTCAR:    PAW_PBE Eu 23Dec2003                  
   SHA256 =  ed303d27e7c5191953f9b15539336e6f36d9037c1d2e92e80c13d733697cb93d Eu/POTCAR             
   COPYR  = (c) Copyright 23Dec2003 Georg Kresse                                                    
   COPYR  = This file is part of the software VASP. Any use, copying, and all other rights are regul
   COPYR  = If you do not have a valid VASP license, you may not use, copy or distribute this file. 
   VRHFIN =Eu : [core=Kr4d]                                                                         
   LEXCH  = PE                                                                                      
   EATOM  =  2619.8085 eV,  192.5505 Ry                                                             
                                                                                                    
   TITEL  = PAW_PBE Eu 23Dec2003                                                                    
   LULTRA =        F    use ultrasoft PP ?                                                          
   IUNSCR =        1    unscreen: 0-lin 1-nonlin 2-no                                               
   RPACOR =    2.300    partial core radius                                                         
   POMASS =  151.965; ZVAL   =   17.000    mass and valenz                                          
   RCORE  =    2.800    outmost cutoff radius                                                       
   RWIGS  =    2.800; RWIGS  =    1.482    wigner-seitz radius (au A)                               
   ENMAX  =  249.668; ENMIN  =  187.251 eV                                                          
   RCLOC  =    2.308    cutoff for local pot                                                        
   LCOR   =        T    correct aug charges                                                         
   LPAW   =        T    paw PP                                                                      
   EAUG   =  549.628                                                                                
   DEXC   =    0.000                                                                                
   RMAX   =    2.870    core radius for proj-oper                                                   
   RAUG   =    1.300    factor for augmentation sphere                                              
   RDEP   =    2.887    radius for radial grids                                                     
   RDEPT  =    2.221    core radius for aug-charge                                                  
                                                                                                    
   Atomic configuration                                                                             
   14 entries                                                                                       
     n  l   j            E        occ.                                                              
     1  0  0.50    -48354.7667   2.0000                                                             
     2  0  0.50     -7939.6472   2.0000                                                             
     2  1  1.50     -7072.6637   6.0000                                                             
     3  0  0.50     -1747.1875   2.0000                                                             
     3  1  1.50     -1477.5221   6.0000                                                             
     3  2  2.50     -1117.4686  10.0000                                                             
     4  0  0.50      -346.8682   2.0000                                                             
     4  1  1.50      -258.1962   6.0000                                                             
     4  2  2.50      -134.7724  10.0000                                                             
     5  0  0.50       -44.6510   2.0000                                                             
     6  0  0.50        -3.6227   2.0000                                                             
     5  1  1.50       -23.7639   6.0000                                                             
     5  2  2.50        -1.3130   0.0000                                                             
     4  3  2.50        -2.7310   7.0000                                                             
   Description                                                                                      
     l       E           TYP  RCUT    TYP  RCUT                                                     
     0    -44.6510453     23  2.400                                                                 
     0     -3.6226685     23  2.400                                                                 
     1    -23.7638687     23  2.400                                                                 
     1     27.2116520     23  2.400                                                                 
     2     -1.3129622     23  2.500                                                                 
     2     13.6058260     23  2.500                                                                 
     3     -2.7309948     23  2.800                                                                 
     3     -3.4014565     23  2.800                                                                 
  local pseudopotential read in
  partial core-charges read in
  partial kinetic energy density read in
  atomic valenz-charges read in
  non local Contribution for L=            0  read in
    real space projection operators read in
  non local Contribution for L=            0  read in
    real space projection operators read in
  non local Contribution for L=            1  read in
    real space projection operators read in
  non local Contribution for L=            1  read in
    real space projection operators read in
  non local Contribution for L=            2  read in
    real space projection operators read in
  non local Contribution for L=            2  read in
    real space projection operators read in
  non local Contribution for L=            3  read in
    real space projection operators read in
  non local Contribution for L=            3  read in
    real space projection operators read in
    PAW grid and wavefunctions read in
 
   number of l-projection  operators is LMAX  =            8
   number of lm-projection operators is LMMAX =           32
 
 POTCAR:    PAW_PBE Sc_sv 07Sep2000               
   SHA256 =  9aad5a0618293b7e22b0823afd8bf80ef5c5e525eb8618ba91672918e18a06fa Sc_sv/POTCAR          
   COPYR  = (c) Copyright 07Sep2000 Georg Kresse                                                    
   COPYR  = This file is part of the software VASP. Any use, copying, and all other rights are regul
   COPYR  = If you do not have a valid VASP license, you may not use, copy or distribute this file. 
   VRHFIN =Sc: 3p4s3d                                                                               
   LEXCH  = PE                                                                                      
   EATOM  =  1273.2868 eV,   93.5839 Ry                                                             
                                                                                                    
   TITEL  = PAW_PBE Sc_sv 07Sep2000                                                                 
   LULTRA =        F    use ultrasoft PP ?                                                          
   IUNSCR =        1    unscreen: 0-lin 1-nonlin 2-no                                               
   RPACOR =    2.200    partial core radius                                                         
   POMASS =   44.956; ZVAL   =   11.000    mass and valenz                                          
   RCORE  =    2.500    outmost cutoff radius                                                       
   RWIGS  =    2.700; RWIGS  =    1.429    wigner-seitz radius (au A)                               
   ENMAX  =  222.660; ENMIN  =  166.995 eV                                                          
   RCLOC  =    1.805    cutoff for local pot                                                        
   LCOR   =        T    correct aug charges                                                         
   LPAW   =        T    paw PP                                                                      
   EAUG   =  443.063                                                                                
   RMAX   =    2.551    core radius for proj-oper                                                   
   RAUG   =    1.300    factor for augmentation sphere                                              
   RDEP   =    2.650    radius for radial grids                                                     
   RDEPT  =    2.038    core radius for aug-charge                                                  
                                                                                                    
   Atomic configuration                                                                             
    8 entries                                                                                       
     n  l   j            E        occ.                                                              
     1  0  0.50     -4394.2533   2.0000                                                             
     2  0  0.50      -471.0040   2.0000                                                             
     2  1  1.50      -384.9788   6.0000                                                             
     3  0  0.50       -52.1410   2.0000                                                             
     4  0  0.50        -3.5584   1.0000                                                             
     3  1  1.50       -30.8841   6.0000                                                             
     3  2  2.50        -1.3655   2.0000                                                             
     4  3  2.50        -1.3606   0.0000                                                             
   Description                                                                                      
     l       E           TYP  RCUT    TYP  RCUT                                                     
     0    -52.1409870     23  1.800                                                                 
     0     -3.5583698     23  2.500                                                                 
     1    -30.8840697     23  2.300                                                                 
     1      4.0817478     23  2.300                                                                 
     2     -1.3655397     23  2.500                                                                 
     2      0.3564476     23  2.500                                                                 
  local pseudopotential read in
  partial core-charges read in
  partial kinetic energy density read in
  atomic valenz-charges read in
  non local Contribution for L=            0  read in
    real space projection operators read in
  non local Contribution for L=            0  read in
    real space projection operators read in
  non local Contribution for L=            1  read in
    real space projection operators read in
  non local Contribution for L=            1  read in
    real space projection operators read in
  non local Contribution for L=            2  read in
    real space projection operators read in
  non local Contribution for L=            2  read in
    real space projection operators read in
    PAW grid and wavefunctions read in
 
   number of l-projection  operators is LMAX  =            6
   number of lm-projection operators is LMMAX =           18
 
 POTCAR:    PAW_PBE O 08Apr2002                   
   SHA256 =  818f92134a0a090dccd8ba1447fa70422a3b330e708bb4f08108d8ae51209ddf O/POTCAR              
   COPYR  = (c) Copyright 08Apr2002 Georg Kresse                                                    
   COPYR  = This file is part of the software VASP. Any use, copying, and all other rights are regul
   COPYR  = If you do not have a valid VASP license, you may not use, copy or distribute this file. 
   VRHFIN =O: s2p4                                                                                  
   LEXCH  = PE                                                                                      
   EATOM  =   432.3788 eV,   31.7789 Ry                                                             
                                                                                                    
   TITEL  = PAW_PBE O 08Apr2002                                                                     
   LULTRA =        F    use ultrasoft PP ?                                                          
   IUNSCR =        1    unscreen: 0-lin 1-nonlin 2-no                                               
   RPACOR =    1.200    partial core radius                                                         
   POMASS =   16.000; ZVAL   =    6.000    mass and valenz                                          
   RCORE  =    1.520    outmost cutoff radius                                                       
   RWIGS  =    1.550; RWIGS  =    0.820    wigner-seitz radius (au A)                               
   ENMAX  =  400.000; ENMIN  =  300.000 eV                                                          
   ICORE  =        2    local potential                                                             
   LCOR   =        T    correct aug charges                                                         
   LPAW   =        T    paw PP                                                                      
   EAUG   =  605.392                                                                                
   DEXC   =    0.000                                                                                
   RMAX   =    1.553    core radius for proj-oper                                                   
   RAUG   =    1.300    factor for augmentation sphere                                              
   RDEP   =    1.550    radius for radial grids                                                     
   RDEPT  =    1.329    core radius for aug-charge                                                  
                                                                                                    
   Atomic configuration                                                                             
    4 entries                                                                                       
     n  l   j            E        occ.                                                              
     1  0  0.50      -514.6923   2.0000                                                             
     2  0  0.50       -23.9615   2.0000                                                             
     2  1  0.50        -9.0305   4.0000                                                             
     3  2  1.50        -9.5241   0.0000                                                             
   Description                                                                                      
     l       E           TYP  RCUT    TYP  RCUT                                                     
     0    -23.9615318     23  1.200                                                                 
     0     -9.5240782     23  1.200                                                                 
     1     -9.0304911     23  1.520                                                                 
     1      8.1634956     23  1.520                                                                 
     2     -9.5240782      7  1.500                                                                 
  local pseudopotential read in
  partial core-charges read in
  partial kinetic energy density read in
  kinetic energy density of atom read in
  atomic valenz-charges read in
  non local Contribution for L=            0  read in
    real space projection operators read in
  non local Contribution for L=            0  read in
    real space projection operators read in
  non local Contribution for L=            1  read in
    real space projection operators read in
  non local Contribution for L=            1  read in
    real space projection operators read in
    PAW grid and wavefunctions read in
 
   number of l-projection  operators is LMAX  =            4
   number of lm-projection operators is LMMAX =            8
 
 Optimization of the real space projectors (new method)

 maximal supplied QI-value         = 13.42
 optimisation between [QCUT,QGAM] = [ 11.67, 23.35] = [ 38.16,152.62] Ry 
 Optimized for a Real-space Cutoff    1.63 Angstroem

   l    n(q)    QCUT    max X(q) W(low)/X(q) W(high)/X(q)  e(spline) 
   0     11    11.673    10.400    0.14E-04    0.18E-05    0.24E-07
   0     11    11.673    10.768    0.21E-04    0.32E-05    0.49E-07
   1     11    11.673     4.094    0.40E-05    0.13E-04    0.93E-07
   1     11    11.673     4.009    0.11E-04    0.46E-04    0.33E-06
   2     10    11.673    29.030    0.79E-04    0.60E-04    0.70E-06
   2     10    11.673    19.941    0.80E-04    0.60E-04    0.71E-06
   3     10    11.673    88.889    0.23E-03    0.29E-03    0.30E-06
   3     10    11.673    76.102    0.23E-03    0.30E-03    0.30E-06
 Optimization of the real space projectors (new method)

 maximal supplied QI-value         = 15.12
 optimisation between [QCUT,QGAM] = [ 11.64, 23.28] = [ 37.95,151.78] Ry 
 Optimized for a Real-space Cutoff    1.45 Angstroem

   l    n(q)    QCUT    max X(q) W(low)/X(q) W(high)/X(q)  e(spline) 
   0     10    11.641     2.962    0.13E-04    0.68E-05    0.23E-07
   0     10    11.641    26.414    0.38E-04    0.17E-04    0.18E-07
   1     10    11.641     3.969    0.15E-04    0.39E-04    0.35E-07
   1     10    11.641     5.137    0.96E-04    0.17E-03    0.10E-06
   2      9    11.641   143.970    0.24E-03    0.57E-03    0.92E-06
   2      9    11.641   121.201    0.24E-03    0.57E-03    0.92E-06
 Optimization of the real space projectors (new method)

 maximal supplied QI-value         = 24.76
 optimisation between [QCUT,QGAM] = [ 11.64, 23.27] = [ 37.91,151.63] Ry 
 Optimized for a Real-space Cutoff    1.14 Angstroem

   l    n(q)    QCUT    max X(q) W(low)/X(q) W(high)/X(q)  e(spline) 
   0      8    11.635    20.381    0.10E-03    0.33E-03    0.24E-06
   0      8    11.635    15.268    0.11E-03    0.35E-03    0.26E-06
   1      7    11.635     5.964    0.24E-03    0.31E-03    0.30E-06
   1      7    11.635     5.382    0.22E-03    0.25E-03    0.26E-06
  PAW_PBE Eu 23Dec2003                  :
 energy of atom  1       EATOM=-2619.8085
 kinetic energy error for atom=    0.0015 (will be added to EATOM!!)
  PAW_PBE Sc_sv 07Sep2000               :
 energy of atom  2       EATOM=-1273.2868
 kinetic energy error for atom=    0.0025 (will be added to EATOM!!)
  PAW_PBE O 08Apr2002                   :
 energy of atom  3       EATOM= -432.3788
 kinetic energy error for atom=    0.0208 (will be added to EATOM!!)
 
 
 POSCAR: Eu4 Sc4 O12
  positions in direct lattice
  No initial velocities read in
 exchange correlation table for  LEXCH =        8
   RHO(1)=    0.500       N(1)  =     2000
   RHO(2)=  100.500       N(2)  =     4000

 VTST: version 4.2, (08/11/21)

 CHAIN: initializing optimizer
 
 OPT: Using VASP Dynamics algorithm
 CHAIN: Read ICHAIN             0
 
 POSCAR: Eu4 Sc4 O12
  positions in direct lattice
  No initial velocities read in
 


--------------------------------------------------------------------------------------------------------


 ion  position               nearest neighbor table
   1  0.986  0.056  0.750-  18 2.32  14 2.35  11 2.35  20 2.42   9 2.65  16 2.65   5 3.27   8 3.27
                             7 3.39   6 3.39
   2  0.486  0.444  0.250-  17 2.32  13 2.35  12 2.35  19 2.42  10 2.65  15 2.65   6 3.27   7 3.27
                             5 3.39   8 3.39
   3  0.514  0.556  0.750-  20 2.32  16 2.35   9 2.35  18 2.42  14 2.65  11 2.65   6 3.27   7 3.27
                             5 3.39   8 3.39
   4  0.014  0.944  0.250-  19 2.32  15 2.35  10 2.35  17 2.42  13 2.65  12 2.65   5 3.27   8 3.27
                             7 3.39   6 3.39
   5  0.000  0.500  0.500-   9 2.11  13 2.11  17 2.12  20 2.12  10 2.13  14 2.13   1 3.27   4 3.27
                             3 3.39   2 3.39
   6  0.500  0.000  0.500-  10 2.11  14 2.11  18 2.12  19 2.12  13 2.13   9 2.13   2 3.27   3 3.27
                             1 3.39   4 3.39
   7  0.500  0.000  0.000-  11 2.11  15 2.11  18 2.12  19 2.12  12 2.13  16 2.13   2 3.27   3 3.27
                             1 3.39   4 3.39
   8  0.000  0.500  0.000-  12 2.11  16 2.11  17 2.12  20 2.12  15 2.13  11 2.13   1 3.27   4 3.27
                             3 3.39   2 3.39
   9  0.696  0.302  0.560-   5 2.11   6 2.13   3 2.35   1 2.65
  10  0.196  0.198  0.440-   6 2.11   5 2.13   4 2.35   2 2.65
  11  0.804  0.802  0.940-   7 2.11   8 2.13   1 2.35   3 2.65
  12  0.304  0.698  0.060-   8 2.11   7 2.13   2 2.35   4 2.65
  13  0.304  0.698  0.440-   5 2.11   6 2.13   2 2.35   4 2.65
  14  0.804  0.802  0.560-   6 2.11   5 2.13   1 2.35   3 2.65
  15  0.196  0.198  0.060-   7 2.11   8 2.13   4 2.35   2 2.65
  16  0.696  0.302  0.940-   8 2.11   7 2.13   3 2.35   1 2.65
  17  0.887  0.546  0.250-   5 2.12   8 2.12   2 2.32   4 2.42
  18  0.387  0.954  0.750-   6 2.12   7 2.12   1 2.32   3 2.42
  19  0.613  0.046  0.250-   6 2.12   7 2.12   4 2.32   2 2.42
  20  0.113  0.454  0.750-   5 2.12   8 2.12   3 2.32   1 2.42
 
  LATTYP: Found a simple orthorhombic cell.
 ALAT       =     5.6006680000
 B/A-ratio  =     1.0384163103
 C/A-ratio  =     1.4325246560
  
  Lattice vectors:
  
 A1 = (   5.6006680000,   0.0000000000,   0.0000000000)
 A2 = (   0.0000000000,   5.8158250000,   0.0000000000)
 A3 = (   0.0000000000,   0.0000000000,   8.0230950000)


Analysis of symmetry for initial positions (statically):
=====================================================================
 Subroutine PRICEL returns:
 Original cell was already a primitive cell.
 

 Routine SETGRP: Setting up the symmetry group for a 
 simple orthorhombic supercell.


 Subroutine GETGRP returns: Found  8 space group operations
 (whereof  2 operations were pure point group operations)
 out of a pool of  8 trial point group operations.


The static configuration has the point symmetry S_2 .
 The point group associated with its full space group is D_2h.


Analysis of symmetry for dynamics (positions and initial velocities):
=====================================================================
 Subroutine PRICEL returns:
 Original cell was already a primitive cell.
 

 Routine SETGRP: Setting up the symmetry group for a 
 simple orthorhombic supercell.


 Subroutine GETGRP returns: Found  8 space group operations
 (whereof  2 operations were pure point group operations)
 out of a pool of  8 trial point group operations.


The dynamic configuration has the point symmetry S_2 .
 The point group associated with its full space group is D_2h.


Analysis of structural, dynamic, and magnetic symmetry:
=====================================================================
 Subroutine PRICEL returns:
 Original cell was already a primitive cell.
 

 Routine SETGRP: Setting up the symmetry group for a 
 simple orthorhombic supercell.


 Subroutine GETGRP returns: Found  8 space group operations
 (whereof  2 operations were pure point group operations)
 out of a pool of  8 trial point group operations.


The overall configuration has the point symmetry S_2 .
 The point group associated with its full space group is D_2h.


 Subroutine INISYM returns: Found  8 space group operations
 (whereof  2 operations are pure point group operations),
 and found     1 'primitive' translations


----------------------------------------------------------------------------------------

                                     Primitive cell                                     

  volume of cell :     261.3323

  direct lattice vectors                    reciprocal lattice vectors
     5.600668000  0.000000000  0.000000000     0.178550130  0.000000000  0.000000000
     0.000000000  5.815825000  0.000000000     0.000000000  0.171944651  0.000000000
     0.000000000  0.000000000  8.023095000     0.000000000  0.000000000  0.124640179

  length of vectors
     5.600668000  5.815825000  8.023095000     0.178550130  0.171944651  0.124640179

  position of ions in fractional coordinates (direct lattice)
     0.985515000  0.055523000  0.750000000
     0.485515000  0.444477000  0.250000000
     0.514485000  0.555523000  0.750000000
     0.014485000  0.944477000  0.250000000
     0.000000000  0.500000000  0.500000000
     0.500000000  0.000000000  0.500000000
     0.500000000  0.000000000  0.000000000
     0.000000000  0.500000000  0.000000000
     0.696355000  0.302053000  0.559640000
     0.196355000  0.197947000  0.440360000
     0.803645000  0.802053000  0.940360000
     0.303645000  0.697947000  0.059640000
     0.303645000  0.697947000  0.440360000
     0.803645000  0.802053000  0.559640000
     0.196355000  0.197947000  0.059640000
     0.696355000  0.302053000  0.940360000
     0.886501000  0.546309000  0.250000000
     0.386501000  0.953691000  0.750000000
     0.613499000  0.046309000  0.250000000
     0.113499000  0.453691000  0.750000000

  ion indices of the primitive-cell ions
   primitive index   ion index
                 1           1
                 2           2
                 3           3
                 4           4
                 5           5
                 6           6
                 7           7
                 8           8
                 9           9
                10          10
                11          11
                12          12
                13          13
                14          14
                15          15
                16          16
                17          17
                18          18
                19          19
                20          20

----------------------------------------------------------------------------------------

 
 
 KPOINTS: Kpoints from vasprun.xml                

Automatic generation of k-mesh.
 Grid dimensions read from file:
 generate k-points for:    5    5    3

 Generating k-lattice:

  Cartesian coordinates                     Fractional coordinates (reciprocal lattice)
     0.035710026  0.000000000  0.000000000     0.200000000  0.000000000  0.000000000
     0.000000000  0.034388930  0.000000000     0.000000000  0.200000000  0.000000000
     0.000000000  0.000000000  0.041546726     0.000000000  0.000000000  0.333333333

  Length of vectors
     0.035710026  0.034388930  0.041546726

  Shift w.r.t. Gamma in fractional coordinates (k-lattice)
     0.000000000  0.000000000  0.000000000

 TETIRR: Found    208 inequivalent tetrahedra from      450
 
 Subroutine IBZKPT returns following result:
 ===========================================
 
 Found     18 irreducible k-points:
 
 Following reciprocal coordinates:
            Coordinates               Weight
  0.000000  0.000000  0.000000      1.000000
  0.200000  0.000000  0.000000      2.000000
  0.400000  0.000000  0.000000      2.000000
  0.000000  0.200000  0.000000      2.000000
  0.200000  0.200000  0.000000      4.000000
  0.400000  0.200000  0.000000      4.000000
  0.000000  0.400000  0.000000      2.000000
  0.200000  0.400000  0.000000      4.000000
  0.400000  0.400000  0.000000      4.000000
  0.000000  0.000000  0.333333      2.000000
  0.200000  0.000000  0.333333      4.000000
  0.400000  0.000000  0.333333      4.000000
  0.000000  0.200000  0.333333      4.000000
  0.200000  0.200000  0.333333      8.000000
  0.400000  0.200000  0.333333      8.000000
  0.000000  0.400000  0.333333      4.000000
  0.200000  0.400000  0.333333      8.000000
  0.400000  0.400000  0.333333      8.000000
 
 Following cartesian coordinates:
            Coordinates               Weight
  0.000000  0.000000  0.000000      1.000000
  0.035710  0.000000  0.000000      2.000000
  0.071420  0.000000  0.000000      2.000000
  0.000000  0.034389  0.000000      2.000000
  0.035710  0.034389  0.000000      4.000000
  0.071420  0.034389  0.000000      4.000000
  0.000000  0.068778  0.000000      2.000000
  0.035710  0.068778  0.000000      4.000000
  0.071420  0.068778  0.000000      4.000000
  0.000000  0.000000  0.041547      2.000000
  0.035710  0.000000  0.041547      4.000000
  0.071420  0.000000  0.041547      4.000000
  0.000000  0.034389  0.041547      4.000000
  0.035710  0.034389  0.041547      8.000000
  0.071420  0.034389  0.041547      8.000000
  0.000000  0.068778  0.041547      4.000000
  0.035710  0.068778  0.041547      8.000000
  0.071420  0.068778  0.041547      8.000000
 


--------------------------------------------------------------------------------------------------------




 Dimension of arrays:
   k-points           NKPTS =     18   k-points in BZ     NKDIM =     18   number of bands    NBANDS=    132
   number of dos      NEDOS =    301   number of ions     NIONS =     20
   non local maximal  LDIM  =      8   non local SUM 2l+1 LMDIM =     32
   total plane-waves  NPLWV = 120960
   max r-space proj   IRMAX =   8403   max aug-charges    IRDMAX= 211861
   dimension x,y,z NGX =    42 NGY =   48 NGZ =   60
   dimension x,y,z NGXF=    84 NGYF=   96 NGZF=  120
   support grid    NGXF=   168 NGYF=  192 NGZF=  240
   ions per type =               4   4  12
   NGX,Y,Z   is equivalent  to a cutoff of  12.47, 13.72, 12.43 a.u.
   NGXF,Y,Z  is equivalent  to a cutoff of  24.93, 27.44, 24.87 a.u.

 SYSTEM =  unknown system                          
 POSCAR =  Eu4 Sc4 O12                             

 Startparameter for this run:
   NWRITE =      2    write-flag & timer
   PREC   = accura    normal or accurate (medium, high low for compatibility)
   ISTART =      0    job   : 0-new  1-cont  2-samecut
   ICHARG =      0    charge: 1-file 2-atom 10-const
   ISPIN  =      2    spin polarized calculation?
   LNONCOLLINEAR =      F non collinear calculations
   LSORBIT =      F    spin-orbit coupling
   INIWAV =      1    electr: 0-lowe 1-rand  2-diag
   LASPH  =      T    aspherical Exc in radial PAW
 Electronic Relaxation 1
   ENCUT  =  520.0 eV  38.22 Ry    6.18 a.u.  10.41 10.81 14.92*2*pi/ulx,y,z
   ENINI  =  520.0     initial cutoff
   ENAUG  =  605.4 eV  augmentation charge cutoff
   NELM   =   1000;   NELMIN=  2; NELMDL= -5     # of ELM steps 
   EDIFF  = 0.1E-02   stopping-criterion for ELM
   LREAL  =      T    real-space projection
   NLSPLINE    = F    spline interpolate recip. space projectors
   LCOMPAT=      F    compatible to vasp.4.4
   GGA_COMPAT  = T    GGA compatible to vasp.4.4-vasp.4.6
   LMAXPAW     = -100 max onsite density
   LMAXMIX     =    2 max onsite mixed and CHGCAR
   VOSKOWN=      0    Vosko Wilk Nusair interpolation
   ROPT   =   -0.00025  -0.00025  -0.00025
 Ionic relaxation
   EDIFFG = 0.1E-01   stopping-criterion for IOM
   NSW    =      0    number of steps for IOM
   NBLOCK =      1;   KBLOCK =      1    inner block; outer block 
   IBRION =     -1    ionic relax: 0-MD 1-quasi-New 2-CG
   NFREE  =      0    steps in history (QN), initial steepest desc. (CG)
   ISIF   =      3    stress and relaxation
   IWAVPR =     10    prediction:  0-non 1-charg 2-wave 3-comb
   ISYM   =      2    0-nonsym 1-usesym 2-fastsym
   LCORR  =      T    Harris-Foulkes like correction to forces

   POTIM  = 0.5000    time-step for ionic-motion
   TEIN   =    0.0    initial temperature
   TEBEG  =    0.0;   TEEND  =   0.0 temperature during run
   SMASS  =  -3.00    Nose mass-parameter (am)
   estimated Nose-frequenzy (Omega)   =  0.10E-29 period in steps = 0.13E+47 mass=  -0.717E-27a.u.
   SCALEE = 1.0000    scale energy and forces
   NPACO  =    256;   APACO  = 10.0  distance and # of slots for P.C.
   PSTRESS=    0.0 pullay stress

  Mass of Ions in am
   POMASS = 151.97 44.96 16.00
  Ionic Valenz
   ZVAL   =  17.00 11.00  6.00
  Atomic Wigner-Seitz radii
   RWIGS  =  -1.00 -1.00 -1.00
  virtual crystal weights 
   VCA    =   1.00  1.00  1.00
   NELECT =     184.0000    total number of electrons
   NUPDOWN=      -1.0000    fix difference up-down

 DOS related values:
   EMIN   =  10.00;   EMAX   =-10.00  energy-range for DOS
   EFERMI =   0.00
   ISMEAR =    -5;   SIGMA  =   0.05  broadening in eV -4-tet -1-fermi 0-gaus

 Electronic relaxation 2 (details)
   IALGO  =     38    algorithm
   LDIAG  =      T    sub-space diagonalisation (order eigenvalues)
   LSUBROT=      F    optimize rotation matrix (better conditioning)
   TURBO    =      0    0=normal 1=particle mesh
   IRESTART =      0    0=no restart 2=restart with 2 vectors
   NREBOOT  =      0    no. of reboots
   NMIN     =      0    reboot dimension
   EREF     =   0.00    reference energy to select bands
   IMIX   =      4    mixing-type and parameters
     AMIX     =   0.40;   BMIX     =  1.00
     AMIX_MAG =   1.60;   BMIX_MAG =  1.00
     AMIN     =   0.10
     WC   =   100.;   INIMIX=   1;  MIXPRE=   1;  MAXMIX= -45

 Intra band minimization:
   WEIMIN = 0.0000     energy-eigenvalue tresh-hold
   EBREAK =  0.19E-05  absolut break condition
   DEPER  =   0.30     relativ break condition  

   TIME   =   0.40     timestep for ELM

  volume/ion in A,a.u.               =      13.07        88.18
  Fermi-wavevector in a.u.,A,eV,Ry     =   1.456408  2.752212 28.859650  2.121124
  Thomas-Fermi vector in A             =   2.573330
 
 Write flags
   LWAVE        =      F    write WAVECAR
   LDOWNSAMPLE  =      F    k-point downsampling of WAVECAR
   LCHARG       =      T    write CHGCAR
   LVTOT        =      F    write LOCPOT, total local potential
   LVHAR        =      T    write LOCPOT, Hartree potential only
   LELF         =      T    write electronic localiz. function (ELF)
   LORBIT       =     11    0 simple, 1 ext, 2 COOP (PROOUT), +10 PAW based schemes


 Dipole corrections
   LMONO  =      F    monopole corrections only (constant potential shift)
   LDIPOL =      F    correct potential (dipole corrections)
   IDIPOL =      0    1-x, 2-y, 3-z, 4-all directions 
   EPSILON=  1.0000000 bulk dielectric constant

 Exchange correlation treatment:
   GGA     =    --    GGA type
   LEXCH   =     8    internal setting for exchange type
   LIBXC   =     F    Libxc                    
   VOSKOWN =     0    Vosko Wilk Nusair interpolation
   LHFCALC =     F    Hartree Fock is set to
   LHFONE  =     F    Hartree Fock one center treatment
   AEXX    =    0.0000 exact exchange contribution

 Linear response parameters
   LEPSILON=     F    determine dielectric tensor
   LRPA    =     F    only Hartree local field effects (RPA)
   LNABLA  =     F    use nabla operator in PAW spheres
   LVEL    =     F    velocity operator in full k-point grid
   CSHIFT  =0.1000    complex shift for real part using Kramers Kronig
   OMEGAMAX=  -1.0    maximum frequency
   DEG_THRESHOLD= 0.2000000E-02 threshold for treating states as degnerate
   RTIME   =   -0.100 relaxation time in fs
  (WPLASMAI=    0.000 imaginary part of plasma frequency in eV, 0.658/RTIME)
   DFIELD  = 0.0000000 0.0000000 0.0000000 field for delta impulse in time
 
  Optional k-point grid parameters
   LKPOINTS_OPT  =     F    use optional k-point grid
   KPOINTS_OPT_MODE=     1    mode for optional k-point grid
 
 Orbital magnetization related:
   ORBITALMAG=     F  switch on orbital magnetization
   LCHIMAG   =     F  perturbation theory with respect to B field
   DQ        =  0.001000  dq finite difference perturbation B field
   LLRAUG    =     F  two centre corrections for induced B field



--------------------------------------------------------------------------------------------------------


 Static calculation
 charge density and potential will be updated during run
 spin polarized calculation
 Variant of blocked Davidson
 Davidson routine will perform the subspace rotation
 perform sub-space diagonalisation
    after iterative eigenvector-optimisation
 modified Broyden-mixing scheme, WC =      100.0
 initial mixing is a Kerker type mixing with AMIX =  0.4000 and BMIX =      1.0000
 Hartree-type preconditioning will be used
 using additional bands            40
 real space projection scheme for non local part
 use partial core corrections
 calculate Harris-corrections to forces 
   (improved forces if not selfconsistent)
 use gradient corrections 
 use of overlap-Matrix (Vanderbilt PP)
 Fermi weights with tetrahedron method with Bloechl corrections


--------------------------------------------------------------------------------------------------------


  energy-cutoff  :      520.00
  volume of cell :      261.33
      direct lattice vectors                 reciprocal lattice vectors
     5.600668000  0.000000000  0.000000000     0.178550130  0.000000000  0.000000000
     0.000000000  5.815825000  0.000000000     0.000000000  0.171944651  0.000000000
     0.000000000  0.000000000  8.023095000     0.000000000  0.000000000  0.124640179

  length of vectors
     5.600668000  5.815825000  8.023095000     0.178550130  0.171944651  0.124640179


 
 k-points in units of 2pi/SCALE and weight: Kpoints from vasprun.xml                
   0.00000000  0.00000000  0.00000000       0.013
   0.03571003  0.00000000  0.00000000       0.027
   0.07142005  0.00000000  0.00000000       0.027
   0.00000000  0.03438893  0.00000000       0.027
   0.03571003  0.03438893  0.00000000       0.053
   0.07142005  0.03438893  0.00000000       0.053
   0.00000000  0.06877786  0.00000000       0.027
   0.03571003  0.06877786  0.00000000       0.053
   0.07142005  0.06877786  0.00000000       0.053
   0.00000000  0.00000000  0.04154673       0.027
   0.03571003  0.00000000  0.04154673       0.053
   0.07142005  0.00000000  0.04154673       0.053
   0.00000000  0.03438893  0.04154673       0.053
   0.03571003  0.03438893  0.04154673       0.107
   0.07142005  0.03438893  0.04154673       0.107
   0.00000000  0.06877786  0.04154673       0.053
   0.03571003  0.06877786  0.04154673       0.107
   0.07142005  0.06877786  0.04154673       0.107
 
 k-points in reciprocal lattice and weights: Kpoints from vasprun.xml                
   0.00000000  0.00000000  0.00000000       0.013
   0.20000000  0.00000000  0.00000000       0.027
   0.40000000  0.00000000  0.00000000       0.027
   0.00000000  0.20000000  0.00000000       0.027
   0.20000000  0.20000000  0.00000000       0.053
   0.40000000  0.20000000  0.00000000       0.053
   0.00000000  0.40000000  0.00000000       0.027
   0.20000000  0.40000000  0.00000000       0.053
   0.40000000  0.40000000  0.00000000       0.053
   0.00000000  0.00000000  0.33333333       0.027
   0.20000000  0.00000000  0.33333333       0.053
   0.40000000  0.00000000  0.33333333       0.053
   0.00000000  0.20000000  0.33333333       0.053
   0.20000000  0.20000000  0.33333333       0.107
   0.40000000  0.20000000  0.33333333       0.107
   0.00000000  0.40000000  0.33333333       0.053
   0.20000000  0.40000000  0.33333333       0.107
   0.40000000  0.40000000  0.33333333       0.107
 
 position of ions in fractional coordinates (direct lattice) 
   0.98551500  0.05552300  0.75000000
   0.48551500  0.44447700  0.25000000
   0.51448500  0.55552300  0.75000000
   0.01448500  0.94447700  0.25000000
   0.00000000  0.50000000  0.50000000
   0.50000000  0.00000000  0.50000000
   0.50000000  0.00000000  0.00000000
   0.00000000  0.50000000  0.00000000
   0.69635500  0.30205300  0.55964000
   0.19635500  0.19794700  0.44036000
   0.80364500  0.80205300  0.94036000
   0.30364500  0.69794700  0.05964000
   0.30364500  0.69794700  0.44036000
   0.80364500  0.80205300  0.55964000
   0.19635500  0.19794700  0.05964000
   0.69635500  0.30205300  0.94036000
   0.88650100  0.54630900  0.25000000
   0.38650100  0.95369100  0.75000000
   0.61349900  0.04630900  0.25000000
   0.11349900  0.45369100  0.75000000
 
 position of ions in cartesian coordinates  (Angst):
   5.51954232  0.32291205  6.01732125
   2.71920832  2.58500045  2.00577375
   2.88145968  3.23082455  6.01732125
   0.08112568  5.49291295  2.00577375
   0.00000000  2.90791250  4.01154750
   2.80033400  0.00000000  4.01154750
   2.80033400  0.00000000  0.00000000
   0.00000000  2.90791250  0.00000000
   3.90005317  1.75668739  4.49004489
   1.09971917  1.15122511  3.53305011
   4.50094883  4.66459989  7.54459761
   1.70061483  4.05913761  0.47849739
   1.70061483  4.05913761  3.53305011
   4.50094883  4.66459989  4.49004489
   1.09971917  1.15122511  0.47849739
   3.90005317  1.75668739  7.54459761
   4.96499778  3.17723754  2.00577375
   2.16466378  5.54649996  6.01732125
   3.43600422  0.26932504  2.00577375
   0.63567022  2.63858746  6.01732125
 


--------------------------------------------------------------------------------------------------------


 k-point   1 :   0.0000 0.0000 0.0000  plane waves:    7041
 k-point   2 :   0.2000 0.0000 0.0000  plane waves:    7033
 k-point   3 :   0.4000 0.0000 0.0000  plane waves:    7049
 k-point   4 :   0.0000 0.2000 0.0000  plane waves:    7044
 k-point   5 :   0.2000 0.2000 0.0000  plane waves:    7024
 k-point   6 :   0.4000 0.2000 0.0000  plane waves:    7023
 k-point   7 :   0.0000 0.4000 0.0000  plane waves:    7034
 k-point   8 :   0.2000 0.4000 0.0000  plane waves:    7025
 k-point   9 :   0.4000 0.4000 0.0000  plane waves:    7012
 k-point  10 :   0.0000 0.0000 0.3333  plane waves:    7014
 k-point  11 :   0.2000 0.0000 0.3333  plane waves:    7030
 k-point  12 :   0.4000 0.0000 0.3333  plane waves:    7045
 k-point  13 :   0.0000 0.2000 0.3333  plane waves:    7051
 k-point  14 :   0.2000 0.2000 0.3333  plane waves:    7036
 k-point  15 :   0.4000 0.2000 0.3333  plane waves:    7019
 k-point  16 :   0.0000 0.4000 0.3333  plane waves:    7055
 k-point  17 :   0.2000 0.4000 0.3333  plane waves:    7062
 k-point  18 :   0.4000 0.4000 0.3333  plane waves:    7034

 maximum and minimum number of plane-waves per node :      7062     7012

 maximum number of plane-waves:      7062
 maximum index in each direction: 
   IXMAX=   10   IYMAX=   10   IZMAX=   14
   IXMIN=  -10   IYMIN=  -11   IZMIN=  -15


 serial   3D FFT for wavefunctions
 parallel 3D FFT for charge:
    minimum data exchange during FFTs selected (reduces bandwidth)


 total amount of memory used by VASP MPI-rank0   257199. kBytes
=======================================================================

   base      :      30000. kBytes
   nonlr-proj:      17972. kBytes
   fftplans  :      36043. kBytes
   grid      :      31320. kBytes
   one-center:       1966. kBytes
   wavefun   :     139898. kBytes
 
     INWAV:  cpu time      0.0001: real time      0.0006
 Broyden mixing: mesh for mixing (old mesh)
   NGX = 21   NGY = 21   NGZ = 29
  (NGX  = 84   NGY  = 96   NGZ  =120)
  gives a total of  12789 points

 charge density for first step will be calculated from the start-wavefunctions


--------------------------------------------------------------------------------------------------------


 Maximum index for non-local projection operator          8120
 Maximum index for augmentation-charges         51403 (set IRDMAX)


--------------------------------------------------------------------------------------------------------


 initial charge from wavefunction
 First call to EWALD:  gamma=   0.277
 Maximum number of real-space cells 3x 3x 2
 Maximum number of reciprocal cells 2x 3x 3

    FEWALD:  cpu time      0.0009: real time      0.0009


--------------------------------------- Iteration      1(   1)  ---------------------------------------


    POTLOK:  cpu time      0.1112: real time      0.1471
    SETDIJ:  cpu time      2.1931: real time      2.1940
     EDDAV:  cpu time      6.7319: real time      6.7388
 BZINTS: Fermi energy:   15.342966;  184.000000 electrons
         Band energy:-0.461188E+04;  BLOECHL correction:   -1.285649
       DOS:  cpu time      0.2430: real time      0.2431
    --------------------------------------------
      LOOP:  cpu time      9.2793: real time      9.3230

 eigenvalue-minimisations  : 15340
 total energy-change (2. order) : 0.4013904E+03  (-0.9957651E+04)
 number of electron     184.0000001 magnetization       0.0000000
 augmentation part       27.2581200 magnetization      -0.0204855

 Free energy of the ion-electron system (eV)
  ---------------------------------------------------
  alpha Z        PSCENC =      1420.56650545
  Ewald energy   TEWEN  =    -16296.96135359
  -Hartree energ DENC   =      -840.75915681
  -exchange      EXHF   =         0.00000000
  -V(xc)+E(xc)   XCENC  =       651.06324652
  PAW double counting   =    343777.06944927  -344458.37106716
  entropy T*S    EENTRO =         0.00000000
  eigenvalues    EBANDS =     -4611.87809886
  atomic energy  EATOM  =     20760.66083677
  Solvation  Ediel_sol  =         0.00000000
  ---------------------------------------------------
  free energy    TOTEN  =       401.39036159 eV

  energy without entropy =      401.39036159  energy(sigma->0) =      401.39036159


--------------------------------------------------------------------------------------------------------




--------------------------------------- Iteration      1(   2)  ---------------------------------------


     EDDAV:  cpu time      5.3021: real time      5.3052
 BZINTS: Fermi energy:  -27.068248;  184.000000 electrons
         Band energy:-0.771560E+04;  BLOECHL correction:   -0.311519
       DOS:  cpu time      0.2277: real time      0.2278
    --------------------------------------------
      LOOP:  cpu time      5.5298: real time      5.5329

 eigenvalue-minimisations  : 11584
 total energy-change (2. order) :-0.3103719E+04  (-0.2772222E+04)
 number of electron     184.0000001 magnetization       0.0000000
 augmentation part       27.2581200 magnetization      -0.0204855

 Free energy of the ion-electron system (eV)
  ---------------------------------------------------
  alpha Z        PSCENC =      1420.56650545
  Ewald energy   TEWEN  =    -16296.96135359
  -Hartree energ DENC   =      -840.75915681
  -exchange      EXHF   =         0.00000000
  -V(xc)+E(xc)   XCENC  =       651.06324652
  PAW double counting   =    343777.06944927  -344458.37106716
  entropy T*S    EENTRO =         0.00000000
  eigenvalues    EBANDS =     -7715.59737094
  atomic energy  EATOM  =     20760.66083677
  Solvation  Ediel_sol  =         0.00000000
  ---------------------------------------------------
  free energy    TOTEN  =     -2702.32891048 eV

  energy without entropy =    -2702.32891048  energy(sigma->0) =    -2702.32891048


--------------------------------------------------------------------------------------------------------




--------------------------------------- Iteration      1(   3)  ---------------------------------------


     EDDAV:  cpu time      5.1444: real time      5.1474
 BZINTS: Fermi energy:  -30.991674;  184.000000 electrons
         Band energy:-0.860651E+04;  BLOECHL correction:   -0.004778
       DOS:  cpu time      0.1923: real time      0.1924
    --------------------------------------------
      LOOP:  cpu time      5.3368: real time      5.3399

 eigenvalue-minimisations  : 11096
 total energy-change (2. order) :-0.8909092E+03  (-0.6462334E+03)
 number of electron     184.0000001 magnetization       0.0000000
 augmentation part       27.2581200 magnetization      -0.0204855

 Free energy of the ion-electron system (eV)
  ---------------------------------------------------
  alpha Z        PSCENC =      1420.56650545
  Ewald energy   TEWEN  =    -16296.96135359
  -Hartree energ DENC   =      -840.75915681
  -exchange      EXHF   =         0.00000000
  -V(xc)+E(xc)   XCENC  =       651.06324652
  PAW double counting   =    343777.06944927  -344458.37106716
  entropy T*S    EENTRO =         0.00000000
  eigenvalues    EBANDS =     -8606.50654781
  atomic energy  EATOM  =     20760.66083677
  Solvation  Ediel_sol  =         0.00000000
  ---------------------------------------------------
  free energy    TOTEN  =     -3593.23808735 eV

  energy without entropy =    -3593.23808735  energy(sigma->0) =    -3593.23808735


--------------------------------------------------------------------------------------------------------




--------------------------------------- Iteration      1(   4)  ---------------------------------------


     EDDAV:  cpu time      5.3466: real time      5.3503
 BZINTS: Fermi energy:  -31.418994;  184.000000 electrons
         Band energy:-0.879980E+04;  BLOECHL correction:   -0.000000
       DOS:  cpu time      0.1339: real time      0.1340
    --------------------------------------------
      LOOP:  cpu time      5.4805: real time      5.4843

 eigenvalue-minimisations  : 11560
 total energy-change (2. order) :-0.1932893E+03  (-0.1814790E+03)
 number of electron     184.0000001 magnetization       0.0000000
 augmentation part       27.2581200 magnetization      -0.0204855

 Free energy of the ion-electron system (eV)
  ---------------------------------------------------
  alpha Z        PSCENC =      1420.56650545
  Ewald energy   TEWEN  =    -16296.96135359
  -Hartree energ DENC   =      -840.75915681
  -exchange      EXHF   =         0.00000000
  -V(xc)+E(xc)   XCENC  =       651.06324652
  PAW double counting   =    343777.06944927  -344458.37106716
  entropy T*S    EENTRO =         0.00000000
  eigenvalues    EBANDS =     -8799.79582524
  atomic energy  EATOM  =     20760.66083677
  Solvation  Ediel_sol  =         0.00000000
  ---------------------------------------------------
  free energy    TOTEN  =     -3786.52736478 eV

  energy without entropy =    -3786.52736478  energy(sigma->0) =    -3786.52736478


--------------------------------------------------------------------------------------------------------




--------------------------------------- Iteration      1(   5)  ---------------------------------------


     EDDAV:  cpu time      5.5545: real time      5.5581
 BZINTS: Fermi energy:  -31.454456;  184.000000 electrons
         Band energy:-0.880804E+04;  BLOECHL correction:   -0.000000
       DOS:  cpu time      0.1280: real time      0.1280
    CHARGE:  cpu time      0.2538: real time      0.2539
    MIXING:  cpu time      0.0021: real time      0.0021
    --------------------------------------------
      LOOP:  cpu time      5.9385: real time      5.9422

 eigenvalue-minimisations  : 12264
 total energy-change (2. order) :-0.8241662E+01  (-0.8230014E+01)
 number of electron     184.0000000 magnetization       0.0000000
 augmentation part       62.5917445 magnetization       0.0140276

 Broyden mixing:
  rms(total) = 0.88031E+02    rms(broyden)= 0.88028E+02
  rms(prec ) = 0.97411E+02
  weight for this iteration     100.00

 Free energy of the ion-electron system (eV)
  ---------------------------------------------------
  alpha Z        PSCENC =      1420.56650545
  Ewald energy   TEWEN  =    -16296.96135359
  -Hartree energ DENC   =      -840.75915681
  -exchange      EXHF   =         0.00000000
  -V(xc)+E(xc)   XCENC  =       651.06324652
  PAW double counting   =    343777.06944927  -344458.37106716
  entropy T*S    EENTRO =         0.00000000
  eigenvalues    EBANDS =     -8808.03748677
  atomic energy  EATOM  =     20760.66083677
  Solvation  Ediel_sol  =         0.00000000
  ---------------------------------------------------
  free energy    TOTEN  =     -3794.76902631 eV

  energy without entropy =    -3794.76902631  energy(sigma->0) =    -3794.76902631


--------------------------------------------------------------------------------------------------------




--------------------------------------- Iteration      1(   6)  ---------------------------------------


    POTLOK:  cpu time      0.0086: real time      0.0091
    SETDIJ:  cpu time      2.1726: real time      2.1738
     EDDAV:  cpu time      5.7904: real time      5.7939
 BZINTS: Fermi energy:   -5.453354;  184.000000 electrons
         Band energy:-0.785471E+04;  BLOECHL correction:   -0.024797
       DOS:  cpu time      0.2047: real time      0.2048
    CHARGE:  cpu time      0.2655: real time      0.2657
    MIXING:  cpu time      0.0027: real time      0.0109
    --------------------------------------------
      LOOP:  cpu time      8.4445: real time      8.4582

 eigenvalue-minimisations  : 12904
 total energy-change (2. order) : 0.9034089E+02  (-0.9093781E+03)
 number of electron     184.0000002 magnetization      -0.0806174
 augmentation part       57.6296641 magnetization       0.1427002

 Broyden mixing:
  rms(total) = 0.94505E+02    rms(broyden)= 0.94504E+02
  rms(prec ) = 0.99427E+02
  weight for this iteration     100.00

 eigenvalues of (default mixing * dielectric matrix)
  average eigenvalue GAMMA=   0.4801
  0.4801

 Free energy of the ion-electron system (eV)
  ---------------------------------------------------
  alpha Z        PSCENC =      1420.56650545
  Ewald energy   TEWEN  =    -16296.96135359
  -Hartree energ DENC   =     -2106.86684108
  -exchange      EXHF   =         0.00000000
  -V(xc)+E(xc)   XCENC  =       751.37974483
  PAW double counting   =    649269.05430985  -649647.54941290
  entropy T*S    EENTRO =         0.00000000
  eigenvalues    EBANDS =     -7854.71192065
  atomic energy  EATOM  =     20760.66083677
  Solvation  Ediel_sol  =         0.00000000
  ---------------------------------------------------
  free energy    TOTEN  =     -3704.42813132 eV

  energy without entropy =    -3704.42813132  energy(sigma->0) =    -3704.42813132


--------------------------------------------------------------------------------------------------------




--------------------------------------- Iteration      1(   7)  ---------------------------------------


    POTLOK:  cpu time      0.0090: real time      0.0095
    SETDIJ:  cpu time      2.1869: real time      2.1877
     EDDAV:  cpu time      6.0496: real time      6.0520
 BZINTS: Fermi energy:   -8.765029;  184.000000 electrons
         Band energy:-0.447845E+04;  BLOECHL correction:   -0.009923
       DOS:  cpu time      0.2039: real time      0.2039
    CHARGE:  cpu time      0.2576: real time      0.2576
    MIXING:  cpu time      0.0023: real time      0.0023
    --------------------------------------------
      LOOP:  cpu time      8.7092: real time      8.7131

 eigenvalue-minimisations  : 13616
 total energy-change (2. order) : 0.2406444E+04  (-0.1323667E+03)
 number of electron     184.0000003 magnetization      -0.1302941
 augmentation part       62.7052727 magnetization       0.4334768

 Broyden mixing:
  rms(total) = 0.75237E+02    rms(broyden)= 0.75237E+02
  rms(prec ) = 0.78957E+02
  weight for this iteration     100.00

 eigenvalues of (default mixing * dielectric matrix)
  average eigenvalue GAMMA=   0.2492
  0.4852  0.0131

 Free energy of the ion-electron system (eV)
  ---------------------------------------------------
  alpha Z        PSCENC =      1420.56650545
  Ewald energy   TEWEN  =    -16296.96135359
  -Hartree energ DENC   =     -2846.65708515
  -exchange      EXHF   =         0.00000000
  -V(xc)+E(xc)   XCENC  =       786.37243614
  PAW double counting   =    437935.92144704  -438579.43629048
  entropy T*S    EENTRO =         0.00000000
  eigenvalues    EBANDS =     -4478.45077200
  atomic energy  EATOM  =     20760.66083677
  Solvation  Ediel_sol  =         0.00000000
  ---------------------------------------------------
  free energy    TOTEN  =     -1297.98427582 eV

  energy without entropy =    -1297.98427582  energy(sigma->0) =    -1297.98427582


--------------------------------------------------------------------------------------------------------




--------------------------------------- Iteration      1(   8)  ---------------------------------------


    POTLOK:  cpu time      0.0087: real time      0.0091
    SETDIJ:  cpu time      2.1838: real time      2.1848
     EDDAV:  cpu time      7.1420: real time      7.1449
 BZINTS: Fermi energy:   -7.041148;  184.000000 electrons
         Band energy:-0.384544E+04;  BLOECHL correction:   -0.004349
       DOS:  cpu time      0.2028: real time      0.2028
    CHARGE:  cpu time      0.2594: real time      0.2595
    MIXING:  cpu time      0.0022: real time      0.0022
    --------------------------------------------
      LOOP:  cpu time      9.7988: real time      9.8034

 eigenvalue-minimisations  : 16592
 total energy-change (2. order) : 0.3900085E+03  (-0.1663538E+02)
 number of electron     184.0000002 magnetization      -0.1319986
 augmentation part       63.1553565 magnetization       0.1924642

 Broyden mixing:
  rms(total) = 0.71433E+02    rms(broyden)= 0.71433E+02
  rms(prec ) = 0.74695E+02
  weight for this iteration     100.00

 eigenvalues of (default mixing * dielectric matrix)
  average eigenvalue GAMMA=   0.2460
  0.4784  0.1405  0.1192

 Free energy of the ion-electron system (eV)
  ---------------------------------------------------
  alpha Z        PSCENC =      1420.56650545
  Ewald energy   TEWEN  =    -16296.96135359
  -Hartree energ DENC   =     -3030.30576398
  -exchange      EXHF   =         0.00000000
  -V(xc)+E(xc)   XCENC  =       794.70467454
  PAW double counting   =    397512.41354483  -398223.61449804
  entropy T*S    EENTRO =         0.00000000
  eigenvalues    EBANDS =     -3845.43969040
  atomic energy  EATOM  =     20760.66083677
  Solvation  Ediel_sol  =         0.00000000
  ---------------------------------------------------
  free energy    TOTEN  =      -907.97574442 eV

  energy without entropy =     -907.97574442  energy(sigma->0) =     -907.97574442


--------------------------------------------------------------------------------------------------------




--------------------------------------- Iteration      1(   9)  ---------------------------------------


    POTLOK:  cpu time      0.0087: real time      0.0091
    SETDIJ:  cpu time      2.1804: real time      2.1812
     EDDAV:  cpu time      6.4776: real time      6.4819
 BZINTS: Fermi energy:   -7.734936;  184.000000 electrons
         Band energy:-0.363653E+04;  BLOECHL correction:   -0.012691
       DOS:  cpu time      0.2020: real time      0.2021
    CHARGE:  cpu time      0.2556: real time      0.2556
    MIXING:  cpu time      0.0023: real time      0.0023
    --------------------------------------------
      LOOP:  cpu time      9.1266: real time      9.1323

 eigenvalue-minimisations  : 14672
 total energy-change (2. order) : 0.1248192E+03  (-0.2702306E+01)
 number of electron     184.0000003 magnetization      -7.3871761
 augmentation part       63.5500175 magnetization      -6.1056969

 Broyden mixing:
  rms(total) = 0.70198E+02    rms(broyden)= 0.70198E+02
  rms(prec ) = 0.73371E+02
  weight for this iteration     100.00

 eigenvalues of (default mixing * dielectric matrix)
  average eigenvalue GAMMA=   0.7666
  1.1056  1.1056  0.7308  0.1246

 Free energy of the ion-electron system (eV)
  ---------------------------------------------------
  alpha Z        PSCENC =      1420.56650545
  Ewald energy   TEWEN  =    -16296.96135359
  -Hartree energ DENC   =     -3094.13105485
  -exchange      EXHF   =         0.00000000
  -V(xc)+E(xc)   XCENC  =       797.40145726
  PAW double counting   =    383561.36806117  -384295.53076773
  entropy T*S    EENTRO =         0.00000000
  eigenvalues    EBANDS =     -3636.53018183
  atomic energy  EATOM  =     20760.66083677
  Solvation  Ediel_sol  =         0.00000000
  ---------------------------------------------------
  free energy    TOTEN  =      -783.15649736 eV

  energy without entropy =     -783.15649736  energy(sigma->0) =     -783.15649736


--------------------------------------------------------------------------------------------------------




--------------------------------------- Iteration      1(  10)  ---------------------------------------


    POTLOK:  cpu time      0.0087: real time      0.0093
    SETDIJ:  cpu time      2.1263: real time      2.1274
     EDDAV:  cpu time      5.7548: real time      5.7572
 BZINTS: Fermi energy:   -2.923077;  184.000000 electrons
         Band energy:-0.450276E+04;  BLOECHL correction:   -0.000000
       DOS:  cpu time      0.1119: real time      0.1119
    CHARGE:  cpu time      0.2524: real time      0.2525
    MIXING:  cpu time      0.0024: real time      0.0024
    --------------------------------------------
      LOOP:  cpu time      8.2564: real time      8.2607

 eigenvalue-minimisations  : 12608
 total energy-change (2. order) :-0.5163117E+03  (-0.1142514E+03)
 number of electron     184.0000002 magnetization     -34.5323690
 augmentation part       64.5576014 magnetization     -21.9946735

 Broyden mixing:
  rms(total) = 0.68161E+02    rms(broyden)= 0.68160E+02
  rms(prec ) = 0.72417E+02
  weight for this iteration     100.00

 eigenvalues of (default mixing * dielectric matrix)
  average eigenvalue GAMMA=   1.1411
  1.9904  1.9904  0.8011  0.8011  0.1228

 Free energy of the ion-electron system (eV)
  ---------------------------------------------------
  alpha Z        PSCENC =      1420.56650545
  Ewald energy   TEWEN  =    -16296.96135359
  -Hartree energ DENC   =     -2911.73589746
  -exchange      EXHF   =         0.00000000
  -V(xc)+E(xc)   XCENC  =       854.00876340
  PAW double counting   =    328163.69398670  -328786.93783460
  entropy T*S    EENTRO =         0.00000000
  eigenvalues    EBANDS =     -4502.76323537
  atomic energy  EATOM  =     20760.66083677
  Solvation  Ediel_sol  =         0.00000000
  ---------------------------------------------------
  free energy    TOTEN  =     -1299.46822871 eV

  energy without entropy =    -1299.46822871  energy(sigma->0) =    -1299.46822871


--------------------------------------------------------------------------------------------------------




--------------------------------------- Iteration      1(  11)  ---------------------------------------


    POTLOK:  cpu time      0.0082: real time      0.0093
    SETDIJ:  cpu time      2.0647: real time      2.0654
     EDDAV:  cpu time      7.1269: real time      7.1299
 BZINTS: Fermi energy:   14.542447;  184.000000 electrons
         Band energy:-0.262833E+04;  BLOECHL correction:   -0.121740
       DOS:  cpu time      0.2141: real time      0.2141
    CHARGE:  cpu time      0.2604: real time      0.2605
    MIXING:  cpu time      0.0025: real time      0.0025
    --------------------------------------------
      LOOP:  cpu time      9.6768: real time      9.6818

 eigenvalue-minimisations  : 16480
 total energy-change (2. order) :-0.2406416E+04  (-0.4451586E+04)
 number of electron     184.0000001 magnetization     -19.5847585
 augmentation part       46.3843680 magnetization      -8.1027664

 Broyden mixing:
  rms(total) = 0.13608E+03    rms(broyden)= 0.13608E+03
  rms(prec ) = 0.14179E+03
  weight for this iteration     100.00

 eigenvalues of (default mixing * dielectric matrix)
  average eigenvalue GAMMA=   0.8890
  1.5105  1.5105  1.1294  0.7078  0.1230  0.3525

 Free energy of the ion-electron system (eV)
  ---------------------------------------------------
  alpha Z        PSCENC =      1420.56650545
  Ewald energy   TEWEN  =    -16296.96135359
  -Hartree energ DENC   =     -6573.48913570
  -exchange      EXHF   =         0.00000000
  -V(xc)+E(xc)   XCENC  =      1276.13953736
  PAW double counting   =     22652.51919147   -24316.98641065
  entropy T*S    EENTRO =         0.00000000
  eigenvalues    EBANDS =     -2628.33380839
  atomic energy  EATOM  =     20760.66083677
  Solvation  Ediel_sol  =         0.00000000
  ---------------------------------------------------
  free energy    TOTEN  =     -3705.88463728 eV

  energy without entropy =    -3705.88463728  energy(sigma->0) =    -3705.88463728


--------------------------------------------------------------------------------------------------------




--------------------------------------- Iteration      1(  12)  ---------------------------------------


    POTLOK:  cpu time      0.0088: real time      0.0096
    SETDIJ:  cpu time      2.0668: real time      2.0676
     EDDAV:  cpu time      7.6455: real time      7.6492
 BZINTS: Fermi energy:    9.169437;  184.000000 electrons
         Band energy:-0.215828E+04;  BLOECHL correction:   -0.043837
       DOS:  cpu time      0.2047: real time      0.2047
    CHARGE:  cpu time      0.2594: real time      0.2595
    MIXING:  cpu time      0.0025: real time      0.0025
    --------------------------------------------
      LOOP:  cpu time     10.1876: real time     10.1931

 eigenvalue-minimisations  : 17856
 total energy-change (2. order) : 0.9768518E+03  (-0.5585558E+03)
 number of electron     184.0000000 magnetization     -19.4851276
 augmentation part       30.4427341 magnetization     -10.5794468

 Broyden mixing:
  rms(total) = 0.35764E+02    rms(broyden)= 0.35763E+02
  rms(prec ) = 0.47755E+02
  weight for this iteration     100.00

 eigenvalues of (default mixing * dielectric matrix)
  average eigenvalue GAMMA=   0.7657
  1.5107  1.5107  1.0522  0.6894  0.3821  0.1233  0.0915

 Free energy of the ion-electron system (eV)
  ---------------------------------------------------
  alpha Z        PSCENC =      1420.56650545
  Ewald energy   TEWEN  =    -16296.96135359
  -Hartree energ DENC   =     -5865.73970419
  -exchange      EXHF   =         0.00000000
  -V(xc)+E(xc)   XCENC  =       951.70357339
  PAW double counting   =     65676.60076952   -67217.58669812
  entropy T*S    EENTRO =         0.00000000
  eigenvalues    EBANDS =     -2158.27678009
  atomic energy  EATOM  =     20760.66083677
  Solvation  Ediel_sol  =         0.00000000
  ---------------------------------------------------
  free energy    TOTEN  =     -2729.03285087 eV

  energy without entropy =    -2729.03285087  energy(sigma->0) =    -2729.03285087


--------------------------------------------------------------------------------------------------------




--------------------------------------- Iteration      1(  13)  ---------------------------------------


    POTLOK:  cpu time      0.0088: real time      0.0095
    SETDIJ:  cpu time      2.0758: real time      2.0771
     EDDAV:  cpu time      8.0909: real time      8.0942
 BZINTS: Fermi energy:    8.428954;  184.000000 electrons
         Band energy:-0.221021E+04;  BLOECHL correction:   -0.040919
       DOS:  cpu time      0.2024: real time      0.2024
    CHARGE:  cpu time      0.2587: real time      0.2588
    MIXING:  cpu time      0.0026: real time      0.0026
    --------------------------------------------
      LOOP:  cpu time     10.6392: real time     10.6446

 eigenvalue-minimisations  : 18992
 total energy-change (2. order) :-0.1637057E+02  (-0.5952128E+02)
 number of electron     183.9999999 magnetization     -19.6444326
 augmentation part       29.3267897 magnetization     -11.3040490

 Broyden mixing:
  rms(total) = 0.35244E+02    rms(broyden)= 0.35244E+02
  rms(prec ) = 0.47090E+02
  weight for this iteration     100.00

 eigenvalues of (default mixing * dielectric matrix)
  average eigenvalue GAMMA=   0.6784
  1.5084  1.5084  1.0915  0.7006  0.3515  0.1230  0.0719  0.0719

 Free energy of the ion-electron system (eV)
  ---------------------------------------------------
  alpha Z        PSCENC =      1420.56650545
  Ewald energy   TEWEN  =    -16296.96135359
  -Hartree energ DENC   =     -5839.78558460
  -exchange      EXHF   =         0.00000000
  -V(xc)+E(xc)   XCENC  =       950.05814191
  PAW double counting   =     65679.90061960   -67209.63367309
  entropy T*S    EENTRO =         0.00000000
  eigenvalues    EBANDS =     -2210.20891469
  atomic energy  EATOM  =     20760.66083677
  Solvation  Ediel_sol  =         0.00000000
  ---------------------------------------------------
  free energy    TOTEN  =     -2745.40342224 eV

  energy without entropy =    -2745.40342224  energy(sigma->0) =    -2745.40342224


--------------------------------------------------------------------------------------------------------




--------------------------------------- Iteration      1(  14)  ---------------------------------------


    POTLOK:  cpu time      0.0088: real time      0.0093
    SETDIJ:  cpu time      2.0761: real time      2.0768
     EDDAV:  cpu time      7.8922: real time      7.8955
 BZINTS: Fermi energy:    8.418008;  184.000000 electrons
         Band energy:-0.219138E+04;  BLOECHL correction:   -0.049114
       DOS:  cpu time      0.1943: real time      0.1943
    CHARGE:  cpu time      0.2575: real time      0.2576
    MIXING:  cpu time      0.0027: real time      0.0026
    --------------------------------------------
      LOOP:  cpu time     10.4317: real time     10.4362

 eigenvalue-minimisations  : 18448
 total energy-change (2. order) : 0.8985658E+01  (-0.5553243E+01)
 number of electron     183.9999999 magnetization     -18.4418505
 augmentation part       30.4512983 magnetization      -9.1129796

 Broyden mixing:
  rms(total) = 0.36120E+02    rms(broyden)= 0.36120E+02
  rms(prec ) = 0.48082E+02
  weight for this iteration     100.00

 eigenvalues of (default mixing * dielectric matrix)
  average eigenvalue GAMMA=   0.6573
  1.4825  1.4825  1.0348  0.6982  0.2759  0.3900  0.1229  0.2145  0.2145

 Free energy of the ion-electron system (eV)
  ---------------------------------------------------
  alpha Z        PSCENC =      1420.56650545
  Ewald energy   TEWEN  =    -16296.96135359
  -Hartree energ DENC   =     -5877.82612083
  -exchange      EXHF   =         0.00000000
  -V(xc)+E(xc)   XCENC  =       968.95831944
  PAW double counting   =     64243.28608660   -65763.71906769
  entropy T*S    EENTRO =         0.00000000
  eigenvalues    EBANDS =     -2191.38297044
  atomic energy  EATOM  =     20760.66083677
  Solvation  Ediel_sol  =         0.00000000
  ---------------------------------------------------
  free energy    TOTEN  =     -2736.41776430 eV

  energy without entropy =    -2736.41776430  energy(sigma->0) =    -2736.41776430


--------------------------------------------------------------------------------------------------------




--------------------------------------- Iteration      1(  15)  ---------------------------------------


    POTLOK:  cpu time      0.0086: real time      0.0093
    SETDIJ:  cpu time      2.0720: real time      2.0726
     EDDAV:  cpu time      7.8973: real time      7.9010
 BZINTS: Fermi energy:    8.039394;  184.000000 electrons
         Band energy:-0.222342E+04;  BLOECHL correction:   -0.044099
       DOS:  cpu time      0.2031: real time      0.2033
    CHARGE:  cpu time      0.2577: real time      0.2577
    MIXING:  cpu time      0.0028: real time      0.0028
    --------------------------------------------
      LOOP:  cpu time     10.4415: real time     10.4467

 eigenvalue-minimisations  : 18440
 total energy-change (2. order) : 0.1412078E+03  (-0.2989631E+01)
 number of electron     183.9999999 magnetization     -19.4942919
 augmentation part       29.6902301 magnetization     -10.8505908

 Broyden mixing:
  rms(total) = 0.35190E+02    rms(broyden)= 0.35190E+02
  rms(prec ) = 0.46567E+02
  weight for this iteration     100.00

 eigenvalues of (default mixing * dielectric matrix)
  average eigenvalue GAMMA=   0.6634
  1.5263  1.5263  0.9667  0.7343  0.3894  0.3894  0.4613  0.1228  0.2588  0.2588

 Free energy of the ion-electron system (eV)
  ---------------------------------------------------
  alpha Z        PSCENC =      1420.56650545
  Ewald energy   TEWEN  =    -16296.96135359
  -Hartree energ DENC   =     -5704.15194273
  -exchange      EXHF   =         0.00000000
  -V(xc)+E(xc)   XCENC  =       944.47654210
  PAW double counting   =     71323.39856059   -72819.77850626
  entropy T*S    EENTRO =         0.00000000
  eigenvalues    EBANDS =     -2223.42057326
  atomic energy  EATOM  =     20760.66083677
  Solvation  Ediel_sol  =         0.00000000
  ---------------------------------------------------
  free energy    TOTEN  =     -2595.20993093 eV

  energy without entropy =    -2595.20993093  energy(sigma->0) =    -2595.20993093


--------------------------------------------------------------------------------------------------------




--------------------------------------- Iteration      1(  16)  ---------------------------------------


    POTLOK:  cpu time      0.0087: real time      0.0094
    SETDIJ:  cpu time      2.0836: real time      2.0848
     EDDAV:  cpu time      7.8080: real time      7.8107
 BZINTS: Fermi energy:    8.381254;  184.000000 electrons
         Band energy:-0.221989E+04;  BLOECHL correction:   -0.049007
       DOS:  cpu time      0.2062: real time      0.2064
    CHARGE:  cpu time      0.2616: real time      0.2617
    MIXING:  cpu time      0.0028: real time      0.0028
    --------------------------------------------
      LOOP:  cpu time     10.3709: real time     10.3758

 eigenvalue-minimisations  : 18264
 total energy-change (2. order) :-0.1927961E+03  (-0.3798946E+01)
 number of electron     183.9999999 magnetization     -15.7740907
 augmentation part       30.9325895 magnetization      -6.4559495

 Broyden mixing:
  rms(total) = 0.35836E+02    rms(broyden)= 0.35836E+02
  rms(prec ) = 0.47923E+02
  weight for this iteration     100.00

 eigenvalues of (default mixing * dielectric matrix)
  average eigenvalue GAMMA=   0.7382
  1.1380  1.3875  1.3875  0.9820  0.5967  0.5967  0.6772  0.6772  0.1228  0.2774
  0.2774

 Free energy of the ion-electron system (eV)
  ---------------------------------------------------
  alpha Z        PSCENC =      1420.56650545
  Ewald energy   TEWEN  =    -16296.96135359
  -Hartree energ DENC   =     -5869.90430610
  -exchange      EXHF   =         0.00000000
  -V(xc)+E(xc)   XCENC  =       974.20716373
  PAW double counting   =     61182.40870964   -62739.09365439
  entropy T*S    EENTRO =         0.00000000
  eigenvalues    EBANDS =     -2219.88997186
  atomic energy  EATOM  =     20760.66083677
  Solvation  Ediel_sol  =         0.00000000
  ---------------------------------------------------
  free energy    TOTEN  =     -2788.00607036 eV

  energy without entropy =    -2788.00607036  energy(sigma->0) =    -2788.00607036


--------------------------------------------------------------------------------------------------------




--------------------------------------- Iteration      1(  17)  ---------------------------------------


    POTLOK:  cpu time      0.0087: real time      0.0092
    SETDIJ:  cpu time      2.0826: real time      2.0835
     EDDAV:  cpu time      7.2901: real time      7.2930
 BZINTS: Fermi energy:    7.564383;  184.000000 electrons
         Band energy:-0.236968E+04;  BLOECHL correction:   -0.054395
       DOS:  cpu time      0.2053: real time      0.2054
    CHARGE:  cpu time      0.2578: real time      0.2579
    MIXING:  cpu time      0.0029: real time      0.0029
    --------------------------------------------
      LOOP:  cpu time      9.8474: real time      9.8518

 eigenvalue-minimisations  : 16872
 total energy-change (2. order) : 0.1070675E+04  (-0.4895578E+02)
 number of electron     183.9999999 magnetization     -16.0261924
 augmentation part       28.8901218 magnetization     -10.7398640

 Broyden mixing:
  rms(total) = 0.39484E+02    rms(broyden)= 0.39484E+02
  rms(prec ) = 0.46884E+02
  weight for this iteration     100.00

 eigenvalues of (default mixing * dielectric matrix)
  average eigenvalue GAMMA=   0.7561
  1.3974  1.3974  1.0051  1.0051  1.0252  0.6030  0.6030  0.6769  0.6769  0.1228
  0.2800  0.2800

 Free energy of the ion-electron system (eV)
  ---------------------------------------------------
  alpha Z        PSCENC =      1420.56650545
  Ewald energy   TEWEN  =    -16296.96135359
  -Hartree energ DENC   =     -4928.13040142
  -exchange      EXHF   =         0.00000000
  -V(xc)+E(xc)   XCENC  =       898.68994765
  PAW double counting   =    128083.07108632  -129285.54446785
  entropy T*S    EENTRO =         0.00000000
  eigenvalues    EBANDS =     -2369.68370194
  atomic energy  EATOM  =     20760.66083677
  Solvation  Ediel_sol  =         0.00000000
  ---------------------------------------------------
  free energy    TOTEN  =     -1717.33154861 eV

  energy without entropy =    -1717.33154861  energy(sigma->0) =    -1717.33154861


--------------------------------------------------------------------------------------------------------




--------------------------------------- Iteration      1(  18)  ---------------------------------------


    POTLOK:  cpu time      0.0087: real time      0.0092
    SETDIJ:  cpu time      2.0847: real time      2.0854
     EDDAV:  cpu time      8.0434: real time      8.0474
 BZINTS: Fermi energy:    7.565921;  184.000000 electrons
         Band energy:-0.231521E+04;  BLOECHL correction:   -0.062235
       DOS:  cpu time      0.2033: real time      0.2033
    CHARGE:  cpu time      0.2573: real time      0.2574
    MIXING:  cpu time      0.0031: real time      0.0031
    --------------------------------------------
      LOOP:  cpu time     10.6004: real time     10.6058

 eigenvalue-minimisations  : 18856
 total energy-change (2. order) :-0.1140454E+03  (-0.9367259E+01)
 number of electron     183.9999999 magnetization     -14.1633745
 augmentation part       28.6303949 magnetization      -9.2230376

 Broyden mixing:
  rms(total) = 0.38567E+02    rms(broyden)= 0.38567E+02
  rms(prec ) = 0.46217E+02
  weight for this iteration     100.00

 eigenvalues of (default mixing * dielectric matrix)
  average eigenvalue GAMMA=   0.7301
  1.2339  1.3866  1.3866  1.0306  0.6571  0.6571  0.6964  0.6964  0.5315  0.5315
  0.1228  0.2806  0.2806

 Free energy of the ion-electron system (eV)
  ---------------------------------------------------
  alpha Z        PSCENC =      1420.56650545
  Ewald energy   TEWEN  =    -16296.96135359
  -Hartree energ DENC   =     -5036.73058331
  -exchange      EXHF   =         0.00000000
  -V(xc)+E(xc)   XCENC  =       898.48342271
  PAW double counting   =    116715.56982386  -117977.75774977
  entropy T*S    EENTRO =         0.00000000
  eigenvalues    EBANDS =     -2315.20781864
  atomic energy  EATOM  =     20760.66083677
  Solvation  Ediel_sol  =         0.00000000
  ---------------------------------------------------
  free energy    TOTEN  =     -1831.37691651 eV

  energy without entropy =    -1831.37691651  energy(sigma->0) =    -1831.37691651


--------------------------------------------------------------------------------------------------------




--------------------------------------- Iteration      1(  19)  ---------------------------------------


    POTLOK:  cpu time      0.0088: real time      0.0092
    SETDIJ:  cpu time      2.1562: real time      2.1572
[...]
  288          m_sumb_d                              0.000074                          2   4
  289        strnlr                                2.153591                            1   3
  290          rspher_all                            0.138438                          9   4
  291          phaser                                0.501993                        162   4
  292          rpro_isp                              1.506826                        162   4
  293            fftwav_mpi                            0.333068                    10692   5
  294              fftwav                                0.320572                  10692   6
  295                fft3d                                 0.071922                10692   7
  296            rpromu_acc                            0.609623                     2916   5
  297          m_sumb_d                              0.000012                          1   4
  298        fft3d_mpi                             0.003437                           22   3
  299          fftbrc_mpi                            0.002725                         22   4
  300            fftbas_plan_mpi                       0.002715                       22   5
  301              map_forward                           0.000979                     20   6
  302                map_gather                            0.000212                   10   7
  303                m_alltoallv_z                         0.000151                   10   7
  304                map_scatter                           0.000471                   10   7
  305              map_backward                          0.001092                     24   6
  306                map_gather                            0.000253                   12   7
  307                m_alltoallv_z                         0.000148                   12   7
  308                map_scatter                           0.000504                   12   7
  309        m_sumb_d                              0.000027                            5   3
  310        forhar                                0.001552                            2   3
  311          m_sumb_d                              0.000044                          2   4
  312        strehar                               0.001296                            1   3
  313          m_sumb_d                              0.000003                          1   4
  314        chggra                                0.000771                            1   3
  315          fft3d_mpi                             0.000457                          3   4
  316            fftbrc_mpi                            0.000359                        3   5
  317              fftbas_plan_mpi                       0.000358                      3   6
  318                map_forward                           0.000175                    4   7
  319                  map_gather                            0.000042                  2   8
  320                  m_alltoallv_z                         0.000029                  2   8
  321                  map_scatter                           0.000075                  2   8
  322                map_backward                          0.000094                    2   7
  323                  map_gather                            0.000021                  1   8
  324                  m_alltoallv_z                         0.000013                  1   8
  325                  map_scatter                           0.000046                  1   8
  326          m_sumb_d                              0.000009                          2   4
  327          pothar                                0.000076                          1   4
  328            m_sumb_d                              0.000007                        1   5
  329        brmix                                 0.007358                            1   3
  330          m_sumb_d                              0.000075                          6   4
  331          brpre                                 0.000023                          2   4
  332          setg0                                 0.000882                          1   4
  333          broyd                                 0.005422                          1   4
  334            m_sumb_d                              0.000465                       51   5
  335            brget                                 0.001045                      229   5
  336            brsav                                 0.000220                       49   5
  337        m_bcast_d                             0.000023                            2   3
  338      potlok                                0.031099                              2   2
  339        fft3d_mpi                             0.020119                           36   3
  340          fftbrc_mpi                            0.016731                         36   4
  341            fftbas_plan_mpi                       0.016711                       36   5
  342              map_forward                           0.004941                     40   6
  343                map_gather                            0.001617                   24   7
  344                m_alltoallv_z                         0.001752                   24   7
  345                map_scatter                           0.001382                   24   7
  346              map_backward                          0.003977                     32   6
  347                map_gather                            0.001315                   16   7
  348                m_alltoallv_z                         0.001291                   16   7
  349                map_scatter                           0.001179                   16   7
  350              dfftw_execute                         0.006075                     30   6
  351        m_sumb_d                              0.000024                            5   3
  352        pothar                                0.001196                            2   3
  353          m_sumb_d                              0.000074                          2   4
  354        m_bcast_d                             0.001961                            4   3
  355      potlok_metagga                        0.000000                              1   2
  356      set_dd_magatom                        0.000004                              1   2
  357      set_dd_paw                            2.092534                              1   2
  358        m_sumb_d                              0.008535                            7   3
  359      augmentation_charge                   0.115040                              1   2
  360        fft3d_mpi                             0.035420                            2   3
  361          fftbrc_mpi                            0.031834                          2   4
  362            fftbas_plan_mpi                       0.031832                        2   5
  363              dfftw_execute                         0.021325                      6   6
  364              map_backward                          0.010241                      4   6
  365                map_gather                            0.002568                    2   7
  366                m_alltoallv_z                         0.004613                    2   7
  367                map_scatter                           0.003051                    2   7
  368      fftwav_mpi                            2.769657                           3564   2
  369        fftwav                                2.765277                         3564   3
  370          fft3d                                 2.633543                       3564   4
  371      densta                               11.119766                              1   2
 
 Flat profile
 ============
 
             routine name                   CPU           calls
 ---------------------------------------------------------------
 set_dd_paw                            442.746665         217
 eddav                                 256.580736         219
 lapack                                251.332345      524438
 raccmu_                               217.430288      524438
 m_sumb_d                              207.238678     1599186
 redis_pw                              110.903279     2787753
 m_alltoall_d                           51.286875     7340977
 densta                                 48.842415         220
 fft3d                                  25.360707     2973137
 eccp                                   24.917054      260172
 phaser                                 24.439811        8118
 redis_proj                             23.500841     3538312
 fftwav                                 18.347463     1962442
 setdij_                                17.772840         243
 augmentation_charge                    16.969672         217
 orth1                                  16.775719     1573494
 racc0mu_acc                            15.259931      524438
 w1_copy                                14.684922     3032085
 overl                                  14.561544     1761254
 hamiltmu                               14.360216      524438
 rpromu_acc                             12.000260      394622
 dfftw_execute                          11.986498        5652
 total_time                             11.816476           1
 init_acc                               11.708892           1
 m_bcast_z                              11.438337      529190
 soft_charge                            10.966722         216
 setup_precond                           9.411124      260172
 m_bcast_d                               8.772497     1049315
 overl_mu                                8.053504      524438
 ggemm                                   7.041658      658466
 pw_charge                               5.373338      182216
 kinhamil                                4.657635     1010695
 vhamil                                  4.608213     1010695
 fftext_mpi                              4.337920     1010695
 depsum                                  4.196786         216
 apply_precond                           4.084928      750523
 newband                                 4.048404      532322
 m_alltoallv_z                           2.960615        8411
 fftwav_mpi                              2.662620     1962442
 acc_init_cublas                         2.431287           1
 fft3d_mpi                               2.307124     1018220
 map_scatter                             1.754673        8411
 set_charge                              1.576429         216
 map_gather                              1.505371        8411
 acc_init_cusolver                       0.805919           1
 potlok                                  0.792285         217
 rpro_isp                                0.784377         234
 broyd                                   0.677444         215
 elmin                                   0.414481           1
 fftbas_plan_mpi                         0.402319        7525
 w1_projall                              0.390169      390410
 lincom                                  0.291663        7920
 brmix                                   0.237105         215
 brget                                   0.209672       46557
 rspher_all                              0.206515          14
 sphpro_fast                             0.202102           2
 setg0                                   0.185264         217
 acc_cufft_makeplan                      0.121743          19
 truncate_high_frequency_w1              0.099137     1270867
 proall                                  0.069963           1
 brsav                                   0.056772       13225
 map_backward                            0.044141        7946
 map_forward                             0.041478        7104
 orthch                                  0.027706           1
 force_and_stress                        0.017583           1
 pothar                                  0.017423         218
 choleski                                0.014049          36
 fft_gq                                  0.010959         216
 stufak                                  0.008249           1
 strnlr                                  0.006322           1
 brpre                                   0.005274         430
 inisym                                  0.004495           1
 fftbrc_mpi                              0.004422        7525
 fornlr                                  0.003708           1
 strelo                                  0.001754           1
 forhar                                  0.001508           2
 strehar                                 0.001293           1
 strkin                                  0.001196           1
 set_dd_magatom                          0.000991         217
 vectorpot                               0.000906         216
 forloc                                  0.000813           1
 rsp                                     0.000468           1
 fewald                                  0.000345           1
 chggra                                  0.000229           1
 brgrid                                  0.000184           1
 fordep                                  0.000096           1
 posmap                                  0.000042           2
 crpa_reader                             0.000026           1
 rcp                                     0.000026           1
 acc_cufft_makeplans                     0.000016           3
 potlok_metagga                          0.000015         216
 rotate_active_occupied_orbital          0.000000           1
 redis_pw_over_bands                     0.000000           1
 ---------------------------------------------------------------
  summed up times     1969.175958871841     
 
 Accumulative profile
 ====================
 
             routine name                   CPU           calls
 ---------------------------------------------------------------
 total_time                           1969.175959           1
 elmin                                1915.113799           1
 eddav                                1351.727563         219
 set_dd_paw                            445.105454         217
 hamiltmu                              276.224953      524438
 lapack                                251.332345      524438
 raccmu_                               240.743722      524438
 m_sumb_d                              207.238678     1599186
 redis_pw                              136.372475     2787753
 newband                                58.750066      532322
 set_charge                             56.526995         216
 m_alltoall_d                           51.286875     7340977
 redis_proj                             49.318521     3538312
 densta                                 48.842415         220
 fftwav_mpi                             39.158542     1962442
 fftwav                                 36.495922     1962442
 setdij_                                28.851662         243
 fft3d_mpi                              28.218889     1018220
 soft_charge                            25.405551         216
 fft3d                                  25.360707     2973137
 augmentation_charge                    25.147464         217
 eccp                                   24.917054      260172
 phaser                                 24.439811        8118
 fftbrc_mpi                             18.699517        7525
 fftbas_plan_mpi                        18.695095        7525
 orth1                                  16.775719     1573494
 kinhamil                               16.512802     1010695
 racc0mu_acc                            15.259931      524438
 w1_copy                                14.684922     3032085
 overl                                  14.561544     1761254
 rpromu_acc                             12.000260      394622
 dfftw_execute                          11.986498        5652
 fftext_mpi                             11.855167     1010695
 init_acc                               11.708892           1
 w1_projall                             11.567150      390410
 m_bcast_z                              11.438337      529190
 setup_precond                           9.411124      260172
 m_bcast_d                               8.772497     1049315
 force_and_stress                        8.337366           1
 overl_mu                                8.053504      524438
 ggemm                                   7.041658      658466
 pw_charge                               5.373338      182216
 vhamil                                  4.608213     1010695
 depsum                                  4.245852         216
 apply_precond                           4.084928      750523
 map_backward                            3.373973        7946
 m_alltoallv_z                           2.960615        8411
 map_forward                             2.932305        7104
 acc_init_cublas                         2.431287           1
 strnlr                                  2.153591           1
 rpro_isp                                2.070392         234
 potlok                                  1.892269         217
 map_scatter                             1.754673        8411
 brmix                                   1.505662         215
 map_gather                              1.505371        8411
 broyd                                   1.060110         215
 acc_init_cusolver                       0.805919           1
 fornlr                                  0.718041           1
 fordep                                  0.715152           1
 orthch                                  0.378257           1
 fft_gq                                  0.362947         216
 lincom                                  0.291663        7920
 sphpro_fast                             0.210078           2
 brget                                   0.209672       46557
 rspher_all                              0.206515          14
 proall                                  0.185683           1
 setg0                                   0.185264         217
 acc_cufft_makeplans                     0.121759           3
 acc_cufft_makeplan                      0.121743          19
 truncate_high_frequency_w1              0.099137     1270867
 brsav                                   0.056772       13225
 pothar                                  0.019372         218
 choleski                                0.014049          36
 stufak                                  0.008249           1
 brpre                                   0.005274         430
 inisym                                  0.004537           1
 strelo                                  0.001828           1
 forhar                                  0.001552           2
 strehar                                 0.001296           1
 strkin                                  0.001202           1
 set_dd_magatom                          0.000991         217
 fewald                                  0.000919           1
 vectorpot                               0.000906         216
 forloc                                  0.000851           1
 chggra                                  0.000771           1
 rsp                                     0.000468           1
 brgrid                                  0.000184           1
 posmap                                  0.000042           2
 crpa_reader                             0.000026           1
 rcp                                     0.000026           1
 potlok_metagga                          0.000015         216
 rotate_active_occupied_orbital          0.000000           1
 redis_pw_over_bands                     0.000000           1
 ---------------------------------------------------------------
 
Profiling took   6.428386  3.078193  0.003207  0.003117 seconds
Profiling took   4.075884 seconds
