 vasp.6.3.2 27Jun22 (build Jul  3 2023 11:46:21) complex                         
 executed on    LinuxNV_CrayMPICH date 2024.04.20  23:53:30
 running on    4 total cores
 distrk:  each k-point on    4 cores,    1 groups
 distr:  one band on NCORE=   1 cores,    4 groups


--------------------------------------------------------------------------------------------------------


 INCAR:
   ADDGRID = True
   ALGO = Fast
   EDIFF = 5e-05
   ENCUT = 520.0
   IBRION = -1
   ISIF = 3
   ISMEAR = -5
   ISPIN = 2
   LAECHG = True
   LASPH = True
   LCHARG = True
   LORBIT = 11
   LREAL = Auto
   LVHAR = True
   LWAVE = False
   MAGMOM = 1*7.0 3*0.6
   NELM = 1000
   NSW = 0
   PREC = Accurate
   SIGMA = 0.05

 POTCAR:    PAW_PBE Gd 23Dec2003                  
 POTCAR:    PAW_PBE Lu_3 06Sep2000                
 POTCAR:    PAW_PBE Cd 06Sep2000                  
 POTCAR:    PAW_PBE Gd 23Dec2003                  
   SHA256 =  58854b40b4643190560b0e2b62d2ab46bea96585f82c6231a0f4f44b8c3188dc Gd/POTCAR             
   COPYR  = (c) Copyright 23Dec2003 Georg Kresse                                                    
   COPYR  = This file is part of the software VASP. Any use, copying, and all other rights are regul
   COPYR  = If you do not have a valid VASP license, you may not use, copy or distribute this file. 
   VRHFIN =Gd : [core=Xe4]                                                                          
   LEXCH  = PE                                                                                      
   EATOM  =  3047.6032 eV,  223.9925 Ry                                                             
                                                                                                    
   TITEL  = PAW_PBE Gd 23Dec2003                                                                    
   LULTRA =        F    use ultrasoft PP ?                                                          
   IUNSCR =        1    unscreen: 0-lin 1-nonlin 2-no                                               
   RPACOR =    2.300    partial core radius                                                         
   POMASS =  157.250; ZVAL   =   18.000    mass and valenz                                          
   RCORE  =    2.800    outmost cutoff radius                                                       
   RWIGS  =    2.800; RWIGS  =    1.482    wigner-seitz radius (au A)                               
   ENMAX  =  256.472; ENMIN  =  192.354 eV                                                          
   RCLOC  =    2.316    cutoff for local pot                                                        
   LCOR   =        T    correct aug charges                                                         
   LPAW   =        T    paw PP                                                                      
   EAUG   =  537.243                                                                                
   DEXC   =    0.000                                                                                
   RMAX   =    2.857    core radius for proj-oper                                                   
   RAUG   =    1.300    factor for augmentation sphere                                              
   RDEP   =    2.921    radius for radial grids                                                     
   RDEPT  =    2.247    core radius for aug-charge                                                  
                                                                                                    
   Atomic configuration                                                                             
   14 entries                                                                                       
     n  l   j            E        occ.                                                              
     1  0  0.50    -50087.2354   2.0000                                                             
     2  0  0.50     -8269.2182   2.0000                                                             
     2  1  1.50     -7357.3672   6.0000                                                             
     3  0  0.50     -1833.2681   2.0000                                                             
     3  1  1.50     -1550.9376   6.0000                                                             
     3  2  2.50     -1178.7204  10.0000                                                             
     4  0  0.50      -369.2978   2.0000                                                             
     4  1  1.50      -276.2601   6.0000                                                             
     4  2  2.50      -147.6611  10.0000                                                             
     5  0  0.50       -49.7260   2.0000                                                             
     6  0  0.50        -4.1254   2.0000                                                             
     5  1  1.50       -27.2538   6.0000                                                             
     5  2  2.50        -2.5337   1.0000                                                             
     4  3  2.50        -8.7140   7.0000                                                             
   Description                                                                                      
     l       E           TYP  RCUT    TYP  RCUT                                                     
     0    -49.7259557     23  2.400                                                                 
     0     -4.1254107     23  2.400                                                                 
     1    -27.2537518     23  2.400                                                                 
     1     20.4087390     23  2.400                                                                 
     2     -2.5337329     23  2.500                                                                 
     2     13.6058260     23  2.500                                                                 
     3     -8.7140389     23  2.800                                                                 
     3     -9.5240782     23  2.800                                                                 
  local pseudopotential read in
  partial core-charges read in
  partial kinetic energy density read in
  atomic valenz-charges read in
  non local Contribution for L=            0  read in
    real space projection operators read in
  non local Contribution for L=            0  read in
    real space projection operators read in
  non local Contribution for L=            1  read in
    real space projection operators read in
  non local Contribution for L=            1  read in
    real space projection operators read in
  non local Contribution for L=            2  read in
    real space projection operators read in
  non local Contribution for L=            2  read in
    real space projection operators read in
  non local Contribution for L=            3  read in
    real space projection operators read in
  non local Contribution for L=            3  read in
    real space projection operators read in
    PAW grid and wavefunctions read in
 
   number of l-projection  operators is LMAX  =            8
   number of lm-projection operators is LMMAX =           32
 
 POTCAR:    PAW_PBE Lu_3 06Sep2000                
   SHA256 =  fe1f8b446106b829a34406137eadf9babd792fb03d1986447d054dbaf8059d6c Lu_3/POTCAR           
   COPYR  = (c) Copyright 06Sep2000 Georg Kresse                                                    
   COPYR  = This file is part of the software VASP. Any use, copying, and all other rights are regul
   COPYR  = If you do not have a valid VASP license, you may not use, copy or distribute this file. 
   VRHFIN =Lu : [core=Xe4]                                                                          
   LEXCH  = PE                                                                                      
   EATOM  =   703.8470 eV,   51.7313 Ry                                                             
                                                                                                    
   TITEL  = PAW_PBE Lu_3 06Sep2000                                                                  
   LULTRA =        F    use ultrasoft PP ?                                                          
   IUNSCR =        1    unscreen: 0-lin 1-nonlin 2-no                                               
   RPACOR =    2.300    partial core radius                                                         
   POMASS =  174.967; ZVAL   =    9.000    mass and valenz                                          
   RCORE  =    3.000    outmost cutoff radius                                                       
   RWIGS  =    3.000; RWIGS  =    1.588    wigner-seitz radius (au A)                               
   ENMAX  =  154.992; ENMIN  =  116.244 eV                                                          
   RCLOC  =    2.306    cutoff for local pot                                                        
   LCOR   =        T    correct aug charges                                                         
   LPAW   =        T    paw PP                                                                      
   EAUG   =  298.798                                                                                
   DEXC   =    0.000                                                                                
   RMAX   =    3.057    core radius for proj-oper                                                   
   RAUG   =    1.300    factor for augmentation sphere                                              
   RDEP   =    3.026    radius for radial grids                                                     
   RDEPT  =    2.396    core radius for aug-charge                                                  
                                                                                                    
   Atomic configuration                                                                             
   14 entries                                                                                       
     n  l   j            E        occ.                                                              
     1  0  0.50    -63220.3049   2.0000                                                             
     2  0  0.50    -10760.2186   2.0000                                                             
     2  1  1.50     -9464.1045   6.0000                                                             
     3  0  0.50     -2438.5614   2.0000                                                             
     3  1  1.50     -2049.8094   6.0000                                                             
     3  2  2.50     -1583.8197  10.0000                                                             
     4  0  0.50      -485.4768   2.0000                                                             
     4  1  1.50      -357.9664   6.0000                                                             
     4  2  2.50      -191.8199  10.0000                                                             
     4  3  2.50        -9.6447  14.0000                                                             
     5  0  0.50       -61.0346   2.0000                                                             
     6  0  0.50        -4.6583   2.0000                                                             
     5  1  1.50       -31.6451   6.0000                                                             
     5  2  2.50        -1.7505   1.0000                                                             
   Description                                                                                      
     l       E           TYP  RCUT    TYP  RCUT                                                     
     0     -4.6582936     23  3.000                                                                 
     0     10.8846608     23  3.000                                                                 
     1    -31.6450509     23  3.000                                                                 
     1    -33.0056335     23  3.000                                                                 
     2     -1.7504935     23  3.000                                                                 
     2      0.9919308     23  3.000                                                                 
  local pseudopotential read in
  partial core-charges read in
  partial kinetic energy density read in
  atomic valenz-charges read in
  non local Contribution for L=            0  read in
    real space projection operators read in
  non local Contribution for L=            0  read in
    real space projection operators read in
  non local Contribution for L=            1  read in
    real space projection operators read in
  non local Contribution for L=            1  read in
    real space projection operators read in
  non local Contribution for L=            2  read in
    real space projection operators read in
  non local Contribution for L=            2  read in
    real space projection operators read in
    PAW grid and wavefunctions read in
 
   number of l-projection  operators is LMAX  =            6
   number of lm-projection operators is LMMAX =           18
 
 POTCAR:    PAW_PBE Cd 06Sep2000                  
   SHA256 =  8b7ca71966beae5276c8bb910adb3ecc013a3354c27473914c94cd54c83be4f7 Cd/POTCAR             
   COPYR  = (c) Copyright 06Sep2000 Georg Kresse                                                    
   COPYR  = This file is part of the software VASP. Any use, copying, and all other rights are regul
   COPYR  = If you do not have a valid VASP license, you may not use, copy or distribute this file. 
   VRHFIN =Cd : s2 d10                                                                              
   LEXCH  = PE                                                                                      
   EATOM  =  1293.1815 eV,   95.0462 Ry                                                             
                                                                                                    
   TITEL  = PAW_PBE Cd 06Sep2000                                                                    
   LULTRA =        F    use ultrasoft PP ?                                                          
   IUNSCR =        1    unscreen: 0-lin 1-nonlin 2-no                                               
   RPACOR =    2.000    partial core radius                                                         
   POMASS =  112.411; ZVAL   =   12.000    mass and valenz                                          
   RCORE  =    2.300    outmost cutoff radius                                                       
   RWIGS  =    2.980; RWIGS  =    1.577    wigner-seitz radius (au A)                               
   ENMAX  =  274.336; ENMIN  =  205.752 eV                                                          
   RCLOC  =    2.054    cutoff for local pot                                                        
   LCOR   =        T    correct aug charges                                                         
   LPAW   =        T    paw PP                                                                      
   EAUG   =  456.106                                                                                
   DEXC   =    0.000                                                                                
   RMAX   =    2.358    core radius for proj-oper                                                   
   RAUG   =    1.300    factor for augmentation sphere                                              
   RDEP   =    2.450    radius for radial grids                                                     
   RDEPT  =    1.955    core radius for aug-charge                                                  
                                                                                                    
   Atomic configuration                                                                             
   12 entries                                                                                       
     n  l   j            E        occ.                                                              
     1  0  0.50    -26519.7817   2.0000                                                             
     2  0  0.50     -3936.9612   2.0000                                                             
     2  1  1.50     -3532.2230   6.0000                                                             
     3  0  0.50      -733.7908   2.0000                                                             
     3  1  1.50      -601.0792   6.0000                                                             
     3  2  2.50      -393.5307  10.0000                                                             
     4  0  0.50      -105.8977   2.0000                                                             
     4  1  1.50       -66.9488   6.0000                                                             
     4  2  2.50       -11.7331  10.0000                                                             
     5  0  0.50        -5.6592   2.0000                                                             
     5  1  0.50        -1.3606   0.0000                                                             
     4  3  2.50        -1.3606   0.0000                                                             
   Description                                                                                      
     l       E           TYP  RCUT    TYP  RCUT                                                     
     2    -11.7331479     23  2.300                                                                 
     2    -13.0937305     23  2.300                                                                 
     0     -5.6591502     23  2.300                                                                 
     0     -1.5561433     23  2.300                                                                 
     1     -2.7211652     23  2.300                                                                 
     1      8.3548275     23  2.300                                                                 
  local pseudopotential read in
  partial core-charges read in
  partial kinetic energy density read in
  atomic valenz-charges read in
  non local Contribution for L=            2  read in
    real space projection operators read in
  non local Contribution for L=            2  read in
    real space projection operators read in
  non local Contribution for L=            0  read in
    real space projection operators read in
  non local Contribution for L=            0  read in
    real space projection operators read in
  non local Contribution for L=            1  read in
    real space projection operators read in
  non local Contribution for L=            1  read in
    real space projection operators read in
    PAW grid and wavefunctions read in
 
   number of l-projection  operators is LMAX  =            6
   number of lm-projection operators is LMMAX =           18
 
 -----------------------------------------------------------------------------
|                                                                             |
|               ----> ADVICE to this user running VASP <----                  |
|                                                                             |
|     You have a (more or less) 'small supercell' and for smaller cells       |
|     it is recommended to use the reciprocal-space projection scheme!        |
|     The real-space optimization is not efficient for small cells and it     |
|     is also less accurate ...                                               |
|     Therefore, set LREAL=.FALSE. in the INCAR file.                         |
|                                                                             |
 -----------------------------------------------------------------------------

 Optimization of the real space projectors (new method)

 maximal supplied QI-value         = 13.42
 optimisation between [QCUT,QGAM] = [ 11.67, 23.35] = [ 38.16,152.62] Ry 
 Optimized for a Real-space Cutoff    1.63 Angstroem

   l    n(q)    QCUT    max X(q) W(low)/X(q) W(high)/X(q)  e(spline) 
   0     11    11.673    10.501    0.14E-04    0.17E-05    0.21E-07
   0     11    11.673     9.148    0.21E-04    0.32E-05    0.45E-07
   1     11    11.673     4.035    0.33E-05    0.11E-04    0.84E-07
   1     11    11.673     4.388    0.11E-04    0.47E-04    0.34E-06
   2     10    11.673    20.656    0.12E-04    0.28E-04    0.54E-06
   2     10    11.673    12.651    0.11E-04    0.26E-04    0.51E-06
   3     10    11.673    61.921    0.19E-03    0.22E-03    0.23E-06
   3     10    11.673    48.328    0.20E-03    0.23E-03    0.23E-06
 Optimization of the real space projectors (new method)

 maximal supplied QI-value         = 12.47
 optimisation between [QCUT,QGAM] = [ 11.60, 23.32] = [ 37.68,152.32] Ry 
 Optimized for a Real-space Cutoff    1.78 Angstroem

   l    n(q)    QCUT    max X(q) W(low)/X(q) W(high)/X(q)  e(spline) 
   0     13    11.599    39.231    0.34E-04    0.22E-04    0.85E-06
   0     13    11.599    20.134    0.22E-04    0.18E-04    0.72E-06
   1     12    11.599    35.092    0.60E-05    0.20E-04    0.84E-06
   1     12    11.599    35.544    0.64E-05    0.21E-04    0.89E-06
   2     12    11.599   467.541    0.24E-03    0.14E-04    0.16E-05
   2     12    11.599   368.025    0.24E-03    0.14E-04    0.16E-05
 Optimization of the real space projectors (new method)

 maximal supplied QI-value         = 16.25
 optimisation between [QCUT,QGAM] = [ 11.54, 23.24] = [ 37.28,151.24] Ry 
 Optimized for a Real-space Cutoff    1.49 Angstroem

   l    n(q)    QCUT    max X(q) W(low)/X(q) W(high)/X(q)  e(spline) 
   2      9    11.539    73.106    0.18E-03    0.88E-04    0.18E-06
   2      9    11.539    71.731    0.19E-03    0.89E-04    0.19E-06
   0     10    11.539   146.509    0.42E-04    0.28E-04    0.31E-06
   0     10    11.539    95.017    0.39E-04    0.27E-04    0.30E-06
   1     10    11.539    36.165    0.52E-04    0.99E-04    0.10E-06
   1     10    11.539    31.530    0.47E-04    0.91E-04    0.92E-07
  PAW_PBE Gd 23Dec2003                  :
 energy of atom  1       EATOM=-3047.6032
 kinetic energy error for atom=    0.0019 (will be added to EATOM!!)
  PAW_PBE Lu_3 06Sep2000                :
 energy of atom  2       EATOM= -703.8470
 kinetic energy error for atom=    0.0001 (will be added to EATOM!!)
  PAW_PBE Cd 06Sep2000                  :
 energy of atom  3       EATOM=-1293.1815
 kinetic energy error for atom=    0.0062 (will be added to EATOM!!)
 
 
 POSCAR: Gd1 Lu1 Cd2
  positions in direct lattice
  No initial velocities read in
 exchange correlation table for  LEXCH =        8
   RHO(1)=    0.500       N(1)  =     2000
   RHO(2)=  100.500       N(2)  =     4000

 VTST: version 4.2, (08/11/21)

 CHAIN: initializing optimizer
 
 OPT: Using VASP Dynamics algorithm
 CHAIN: Read ICHAIN             0
 
 POSCAR: Gd1 Lu1 Cd2
  positions in direct lattice
  No initial velocities read in
 


--------------------------------------------------------------------------------------------------------


 ion  position               nearest neighbor table
   1  0.250  0.250  0.250-   3 3.22   3 3.22   3 3.22   3 3.22   4 3.22   4 3.22   4 3.22   4 3.22

   2  0.750  0.750  0.750-   4 3.22   4 3.22   4 3.22   3 3.22   4 3.22   3 3.22   3 3.22   3 3.22

   3  0.000  0.000  0.000-   2 3.22   2 3.22   2 3.22   1 3.22   2 3.22   1 3.22   1 3.22   1 3.22
                             4 3.72   4 3.72   4 3.72   4 3.72   4 3.72   4 3.72
   4  0.500  0.500  0.500-   1 3.22   1 3.22   1 3.22   1 3.22   2 3.22   2 3.22   2 3.22   2 3.22
                             3 3.72   3 3.72   3 3.72   3 3.72   3 3.72   3 3.72
 
  LATTYP: Found a face centered cubic cell.
 ALAT       =     7.4323540000
  
  Lattice vectors:
  
 A1 = (   0.0000000000,   3.7161770000,   3.7161770000)
 A2 = (   3.7161770000,   0.0000000000,   3.7161770000)
 A3 = (   3.7161770000,   3.7161770000,   0.0000000000)


Analysis of symmetry for initial positions (statically):
=====================================================================
 Subroutine PRICEL returns:
 Original cell was already a primitive cell.
 

 Routine SETGRP: Setting up the symmetry group for a 
 face centered cubic supercell.


 Subroutine GETGRP returns: Found 48 space group operations
 (whereof 24 operations were pure point group operations)
 out of a pool of 48 trial point group operations.


The static configuration has the point symmetry T_d .
 The point group associated with its full space group is O_h .


Analysis of symmetry for dynamics (positions and initial velocities):
=====================================================================
 Subroutine PRICEL returns:
 Original cell was already a primitive cell.
 

 Routine SETGRP: Setting up the symmetry group for a 
 face centered cubic supercell.


 Subroutine GETGRP returns: Found 48 space group operations
 (whereof 24 operations were pure point group operations)
 out of a pool of 48 trial point group operations.


The dynamic configuration has the point symmetry T_d .
 The point group associated with its full space group is O_h .


Analysis of structural, dynamic, and magnetic symmetry:
=====================================================================
 Subroutine PRICEL returns:
 Original cell was already a primitive cell.
 

 Routine SETGRP: Setting up the symmetry group for a 
 face centered cubic supercell.


 Subroutine GETGRP returns: Found 48 space group operations
 (whereof 24 operations were pure point group operations)
 out of a pool of 48 trial point group operations.


The overall configuration has the point symmetry T_d .
 The point group associated with its full space group is O_h .


 Subroutine INISYM returns: Found 48 space group operations
 (whereof 24 operations are pure point group operations),
 and found     1 'primitive' translations


----------------------------------------------------------------------------------------

                                     Primitive cell                                     

  volume of cell :     102.6406

  direct lattice vectors                    reciprocal lattice vectors
     0.000000000  3.716177000  3.716177000    -0.134546874  0.134546874  0.134546874
     3.716177000  0.000000000  3.716177000     0.134546874 -0.134546874  0.134546874
     3.716177000  3.716177000  0.000000000     0.134546874  0.134546874 -0.134546874

  length of vectors
     5.255467914  5.255467914  5.255467914     0.233042022  0.233042022  0.233042022

  position of ions in fractional coordinates (direct lattice)
     0.250000000  0.250000000  0.250000000
     0.750000000  0.750000000  0.750000000
     0.000000000  0.000000000  0.000000000
     0.500000000  0.500000000  0.500000000

  ion indices of the primitive-cell ions
   primitive index   ion index
                 1           1
                 2           2
                 3           3
                 4           4

----------------------------------------------------------------------------------------

 
 
 KPOINTS: Kpoints from vasprun.xml                

Automatic generation of k-mesh.
 Grid dimensions read from file:
 generate k-points for:    6    6    6

 Generating k-lattice:

  Cartesian coordinates                     Fractional coordinates (reciprocal lattice)
    -0.022424479  0.022424479  0.022424479     0.166666667 -0.000000000 -0.000000000
     0.022424479 -0.022424479  0.022424479    -0.000000000  0.166666667  0.000000000
     0.022424479  0.022424479 -0.022424479     0.000000000  0.000000000  0.166666667

  Length of vectors
     0.038840337  0.038840337  0.038840337

  Shift w.r.t. Gamma in fractional coordinates (k-lattice)
     0.500000000  0.500000000  0.500000000

 TETIRR: Found    403 inequivalent tetrahedra from     5184
 
 Subroutine IBZKPT returns following result:
 ===========================================
 
 Found     28 irreducible k-points:
 
 Following reciprocal coordinates:
            Coordinates               Weight
  0.083333  0.083333  0.083333      8.000000
  0.250000  0.083333  0.083333     24.000000
  0.416667  0.083333  0.083333     24.000000
 -0.416667  0.083333  0.083333     24.000000
 -0.250000  0.083333  0.083333     24.000000
 -0.083333  0.083333  0.083333     24.000000
  0.250000  0.250000  0.083333     24.000000
  0.416667  0.250000  0.083333     48.000000
 -0.416667  0.250000  0.083333     48.000000
 -0.250000  0.250000  0.083333     48.000000
 -0.083333  0.250000  0.083333     48.000000
  0.416667  0.416667  0.083333     24.000000
 -0.416667  0.416667  0.083333     48.000000
 -0.250000  0.416667  0.083333     48.000000
 -0.083333  0.416667  0.083333     48.000000
 -0.416667 -0.416667  0.083333     24.000000
 -0.250000 -0.416667  0.083333     48.000000
 -0.250000 -0.250000  0.083333     24.000000
  0.250000  0.250000  0.250000      8.000000
  0.416667  0.250000  0.250000     24.000000
 -0.416667  0.250000  0.250000     24.000000
 -0.250000  0.250000  0.250000     24.000000
  0.416667  0.416667  0.250000     24.000000
 -0.416667  0.416667  0.250000     48.000000
 -0.250000  0.416667  0.250000     48.000000
 -0.416667 -0.416667  0.250000     24.000000
  0.416667  0.416667  0.416667      8.000000
 -0.416667  0.416667  0.416667     24.000000
 
 Following cartesian coordinates:
            Coordinates               Weight
  0.011212  0.011212  0.011212      8.000000
 -0.011212  0.033637  0.033637     24.000000
 -0.033637  0.056061  0.056061     24.000000
  0.078486 -0.056061 -0.056061     24.000000
  0.056061 -0.033637 -0.033637     24.000000
  0.033637 -0.011212 -0.011212     24.000000
  0.011212  0.011212  0.056061     24.000000
 -0.011212  0.033637  0.078486     48.000000
  0.100910 -0.078486 -0.033637     48.000000
  0.078486 -0.056061 -0.011212     48.000000
  0.056061 -0.033637  0.011212     48.000000
  0.011212  0.011212  0.100910     24.000000
  0.123335 -0.100910 -0.011212     48.000000
  0.100910 -0.078486  0.011212     48.000000
  0.078486 -0.056061  0.033637     48.000000
  0.011212  0.011212 -0.123335     24.000000
 -0.011212  0.033637 -0.100910     48.000000
  0.011212  0.011212 -0.078486     24.000000
  0.033637  0.033637  0.033637      8.000000
  0.011212  0.056061  0.056061     24.000000
  0.123335 -0.056061 -0.056061     24.000000
  0.100910 -0.033637 -0.033637     24.000000
  0.033637  0.033637  0.078486     24.000000
  0.145759 -0.078486 -0.033637     48.000000
  0.123335 -0.056061 -0.011212     48.000000
  0.033637  0.033637 -0.145759     24.000000
  0.056061  0.056061  0.056061      8.000000
  0.168184 -0.056061 -0.056061     24.000000
 


--------------------------------------------------------------------------------------------------------




 Dimension of arrays:
   k-points           NKPTS =     28   k-points in BZ     NKDIM =     28   number of bands    NBANDS=     36
   number of dos      NEDOS =    301   number of ions     NIONS =      4
   non local maximal  LDIM  =      8   non local SUM 2l+1 LMDIM =     32
   total plane-waves  NPLWV =  64000
   max r-space proj   IRMAX =  14733   max aug-charges    IRDMAX= 397988
   dimension x,y,z NGX =    40 NGY =   40 NGZ =   40
   dimension x,y,z NGXF=    80 NGYF=   80 NGZF=   80
   support grid    NGXF=   160 NGYF=  160 NGZF=  160
   ions per type =               1   1   2
   NGX,Y,Z   is equivalent  to a cutoff of  12.65, 12.65, 12.65 a.u.
   NGXF,Y,Z  is equivalent  to a cutoff of  25.31, 25.31, 25.31 a.u.

 SYSTEM =  unknown system                          
 POSCAR =  Gd1 Lu1 Cd2                             

 Startparameter for this run:
   NWRITE =      2    write-flag & timer
   PREC   = accura    normal or accurate (medium, high low for compatibility)
   ISTART =      0    job   : 0-new  1-cont  2-samecut
   ICHARG =      2    charge: 1-file 2-atom 10-const
   ISPIN  =      2    spin polarized calculation?
   LNONCOLLINEAR =      F non collinear calculations
   LSORBIT =      F    spin-orbit coupling
   INIWAV =      1    electr: 0-lowe 1-rand  2-diag
   LASPH  =      T    aspherical Exc in radial PAW
 Electronic Relaxation 1
   ENCUT  =  520.0 eV  38.22 Ry    6.18 a.u.   9.77  9.77  9.77*2*pi/ulx,y,z
   ENINI  =  520.0     initial cutoff
   ENAUG  =  537.2 eV  augmentation charge cutoff
   NELM   =   1000;   NELMIN=  2; NELMDL= -5     # of ELM steps 
   EDIFF  = 0.5E-04   stopping-criterion for ELM
   LREAL  =      T    real-space projection
   NLSPLINE    = F    spline interpolate recip. space projectors
   LCOMPAT=      F    compatible to vasp.4.4
   GGA_COMPAT  = T    GGA compatible to vasp.4.4-vasp.4.6
   LMAXPAW     = -100 max onsite density
   LMAXMIX     =    2 max onsite mixed and CHGCAR
   VOSKOWN=      0    Vosko Wilk Nusair interpolation
   ROPT   =   -0.00025  -0.00025  -0.00025
 Ionic relaxation
   EDIFFG = 0.5E-03   stopping-criterion for IOM
   NSW    =      0    number of steps for IOM
   NBLOCK =      1;   KBLOCK =      1    inner block; outer block 
   IBRION =     -1    ionic relax: 0-MD 1-quasi-New 2-CG
   NFREE  =      0    steps in history (QN), initial steepest desc. (CG)
   ISIF   =      3    stress and relaxation
   IWAVPR =     10    prediction:  0-non 1-charg 2-wave 3-comb
   ISYM   =      2    0-nonsym 1-usesym 2-fastsym
   LCORR  =      T    Harris-Foulkes like correction to forces

   POTIM  = 0.5000    time-step for ionic-motion
   TEIN   =    0.0    initial temperature
   TEBEG  =    0.0;   TEEND  =   0.0 temperature during run
   SMASS  =  -3.00    Nose mass-parameter (am)
   estimated Nose-frequenzy (Omega)   =  0.10E-29 period in steps = 0.13E+47 mass=  -0.631E-27a.u.
   SCALEE = 1.0000    scale energy and forces
   NPACO  =    256;   APACO  = 10.0  distance and # of slots for P.C.
   PSTRESS=    0.0 pullay stress

  Mass of Ions in am
   POMASS = 157.25174.97112.41
  Ionic Valenz
   ZVAL   =  18.00  9.00 12.00
  Atomic Wigner-Seitz radii
   RWIGS  =  -1.00 -1.00 -1.00
  virtual crystal weights 
   VCA    =   1.00  1.00  1.00
   NELECT =      51.0000    total number of electrons
   NUPDOWN=      -1.0000    fix difference up-down

 DOS related values:
   EMIN   =  10.00;   EMAX   =-10.00  energy-range for DOS
   EFERMI =   0.00
   ISMEAR =    -5;   SIGMA  =   0.05  broadening in eV -4-tet -1-fermi 0-gaus

 Electronic relaxation 2 (details)
   IALGO  =     68    algorithm
   LDIAG  =      T    sub-space diagonalisation (order eigenvalues)
   LSUBROT=      F    optimize rotation matrix (better conditioning)
   TURBO    =      0    0=normal 1=particle mesh
   IRESTART =      0    0=no restart 2=restart with 2 vectors
   NREBOOT  =      0    no. of reboots
   NMIN     =      0    reboot dimension
   EREF     =   0.00    reference energy to select bands
   IMIX   =      4    mixing-type and parameters
     AMIX     =   0.40;   BMIX     =  1.00
     AMIX_MAG =   1.60;   BMIX_MAG =  1.00
     AMIN     =   0.10
     WC   =   100.;   INIMIX=   1;  MIXPRE=   1;  MAXMIX= -45

 Intra band minimization:
   WEIMIN = 0.0000     energy-eigenvalue tresh-hold
   EBREAK =  0.35E-06  absolut break condition
   DEPER  =   0.30     relativ break condition  

   TIME   =   0.40     timestep for ELM

  volume/ion in A,a.u.               =      25.66       173.16
  Fermi-wavevector in a.u.,A,eV,Ry     =   1.296657  2.450327 22.875745  1.681320
  Thomas-Fermi vector in A             =   2.428099
 
 Write flags
   LWAVE        =      F    write WAVECAR
   LDOWNSAMPLE  =      F    k-point downsampling of WAVECAR
   LCHARG       =      T    write CHGCAR
   LVTOT        =      F    write LOCPOT, total local potential
   LVHAR        =      T    write LOCPOT, Hartree potential only
   LELF         =      F    write electronic localiz. function (ELF)
   LORBIT       =     11    0 simple, 1 ext, 2 COOP (PROOUT), +10 PAW based schemes


 Dipole corrections
   LMONO  =      F    monopole corrections only (constant potential shift)
   LDIPOL =      F    correct potential (dipole corrections)
   IDIPOL =      0    1-x, 2-y, 3-z, 4-all directions 
   EPSILON=  1.0000000 bulk dielectric constant

 Exchange correlation treatment:
   GGA     =    --    GGA type
   LEXCH   =     8    internal setting for exchange type
   LIBXC   =     F    Libxc                    
   VOSKOWN =     0    Vosko Wilk Nusair interpolation
   LHFCALC =     F    Hartree Fock is set to
   LHFONE  =     F    Hartree Fock one center treatment
   AEXX    =    0.0000 exact exchange contribution

 Linear response parameters
   LEPSILON=     F    determine dielectric tensor
   LRPA    =     F    only Hartree local field effects (RPA)
   LNABLA  =     F    use nabla operator in PAW spheres
   LVEL    =     F    velocity operator in full k-point grid
   CSHIFT  =0.1000    complex shift for real part using Kramers Kronig
   OMEGAMAX=  -1.0    maximum frequency
   DEG_THRESHOLD= 0.2000000E-02 threshold for treating states as degnerate
   RTIME   =   -0.100 relaxation time in fs
  (WPLASMAI=    0.000 imaginary part of plasma frequency in eV, 0.658/RTIME)
   DFIELD  = 0.0000000 0.0000000 0.0000000 field for delta impulse in time
 
  Optional k-point grid parameters
   LKPOINTS_OPT  =     F    use optional k-point grid
   KPOINTS_OPT_MODE=     1    mode for optional k-point grid
 
 Orbital magnetization related:
   ORBITALMAG=     F  switch on orbital magnetization
   LCHIMAG   =     F  perturbation theory with respect to B field
   DQ        =  0.001000  dq finite difference perturbation B field
   LLRAUG    =     F  two centre corrections for induced B field



--------------------------------------------------------------------------------------------------------


 Static calculation
 charge density and potential will be updated during run
 spin polarized calculation
 RMM-DIIS sequential band-by-band and
  variant of blocked Davidson during initial phase
 perform sub-space diagonalisation
    before iterative eigenvector-optimisation
 modified Broyden-mixing scheme, WC =      100.0
 initial mixing is a Kerker type mixing with AMIX =  0.4000 and BMIX =      1.0000
 Hartree-type preconditioning will be used
 using additional bands            10
 real space projection scheme for non local part
 use partial core corrections
 calculate Harris-corrections to forces 
   (improved forces if not selfconsistent)
 use gradient corrections 
 use of overlap-Matrix (Vanderbilt PP)
 Fermi weights with tetrahedron method with Bloechl corrections


--------------------------------------------------------------------------------------------------------


  energy-cutoff  :      520.00
  volume of cell :      102.64
      direct lattice vectors                 reciprocal lattice vectors
     0.000000000  3.716177000  3.716177000    -0.134546874  0.134546874  0.134546874
     3.716177000  0.000000000  3.716177000     0.134546874 -0.134546874  0.134546874
     3.716177000  3.716177000  0.000000000     0.134546874  0.134546874 -0.134546874

  length of vectors
     5.255467914  5.255467914  5.255467914     0.233042022  0.233042022  0.233042022


 
 k-points in units of 2pi/SCALE and weight: Kpoints from vasprun.xml                
   0.01121224  0.01121224  0.01121224       0.009
  -0.01121224  0.03363672  0.03363672       0.028
  -0.03363672  0.05606120  0.05606120       0.028
   0.07848568 -0.05606120 -0.05606120       0.028
   0.05606120 -0.03363672 -0.03363672       0.028
   0.03363672 -0.01121224 -0.01121224       0.028
   0.01121224  0.01121224  0.05606120       0.028
  -0.01121224  0.03363672  0.07848568       0.056
   0.10091016 -0.07848568 -0.03363672       0.056
   0.07848568 -0.05606120 -0.01121224       0.056
   0.05606120 -0.03363672  0.01121224       0.056
   0.01121224  0.01121224  0.10091016       0.028
   0.12333463 -0.10091016 -0.01121224       0.056
   0.10091016 -0.07848568  0.01121224       0.056
   0.07848568 -0.05606120  0.03363672       0.056
   0.01121224  0.01121224 -0.12333463       0.028
  -0.01121224  0.03363672 -0.10091016       0.056
   0.01121224  0.01121224 -0.07848568       0.028
   0.03363672  0.03363672  0.03363672       0.009
   0.01121224  0.05606120  0.05606120       0.028
   0.12333463 -0.05606120 -0.05606120       0.028
   0.10091016 -0.03363672 -0.03363672       0.028
   0.03363672  0.03363672  0.07848568       0.028
   0.14575911 -0.07848568 -0.03363672       0.056
   0.12333463 -0.05606120 -0.01121224       0.056
   0.03363672  0.03363672 -0.14575911       0.028
   0.05606120  0.05606120  0.05606120       0.009
   0.16818359 -0.05606120 -0.05606120       0.028
 
 k-points in reciprocal lattice and weights: Kpoints from vasprun.xml                
   0.08333333  0.08333333  0.08333333       0.009
   0.25000000  0.08333333  0.08333333       0.028
   0.41666667  0.08333333  0.08333333       0.028
  -0.41666667  0.08333333  0.08333333       0.028
  -0.25000000  0.08333333  0.08333333       0.028
  -0.08333333  0.08333333  0.08333333       0.028
   0.25000000  0.25000000  0.08333333       0.028
   0.41666667  0.25000000  0.08333333       0.056
  -0.41666667  0.25000000  0.08333333       0.056
  -0.25000000  0.25000000  0.08333333       0.056
  -0.08333333  0.25000000  0.08333333       0.056
   0.41666667  0.41666667  0.08333333       0.028
  -0.41666667  0.41666667  0.08333333       0.056
  -0.25000000  0.41666667  0.08333333       0.056
  -0.08333333  0.41666667  0.08333333       0.056
  -0.41666667 -0.41666667  0.08333333       0.028
  -0.25000000 -0.41666667  0.08333333       0.056
  -0.25000000 -0.25000000  0.08333333       0.028
   0.25000000  0.25000000  0.25000000       0.009
   0.41666667  0.25000000  0.25000000       0.028
  -0.41666667  0.25000000  0.25000000       0.028
  -0.25000000  0.25000000  0.25000000       0.028
   0.41666667  0.41666667  0.25000000       0.028
  -0.41666667  0.41666667  0.25000000       0.056
  -0.25000000  0.41666667  0.25000000       0.056
  -0.41666667 -0.41666667  0.25000000       0.028
   0.41666667  0.41666667  0.41666667       0.009
  -0.41666667  0.41666667  0.41666667       0.028
 
 position of ions in fractional coordinates (direct lattice) 
   0.25000000  0.25000000  0.25000000
   0.75000000  0.75000000  0.75000000
   0.00000000  0.00000000  0.00000000
   0.50000000  0.50000000  0.50000000
 
 position of ions in cartesian coordinates  (Angst):
   1.85808850  1.85808850  1.85808850
   5.57426550  5.57426550  5.57426550
   0.00000000  0.00000000  0.00000000
   3.71617700  3.71617700  3.71617700
 


--------------------------------------------------------------------------------------------------------


 k-point   1 :   0.0833 0.0833 0.0833  plane waves:    2737
 k-point   2 :   0.2500 0.0833 0.0833  plane waves:    2765
 k-point   3 :   0.4167 0.0833 0.0833  plane waves:    2771
 k-point   4 :  -0.4167 0.0833 0.0833  plane waves:    2771
 k-point   5 :  -0.2500 0.0833 0.0833  plane waves:    2763
 k-point   6 :  -0.0833 0.0833 0.0833  plane waves:    2757
 k-point   7 :   0.2500 0.2500 0.0833  plane waves:    2761
 k-point   8 :   0.4167 0.2500 0.0833  plane waves:    2764
 k-point   9 :  -0.4167 0.2500 0.0833  plane waves:    2765
 k-point  10 :  -0.2500 0.2500 0.0833  plane waves:    2760
 k-point  11 :  -0.0833 0.2500 0.0833  plane waves:    2767
 k-point  12 :   0.4167 0.4167 0.0833  plane waves:    2766
 k-point  13 :  -0.4167 0.4167 0.0833  plane waves:    2769
 k-point  14 :  -0.2500 0.4167 0.0833  plane waves:    2763
 k-point  15 :  -0.0833 0.4167 0.0833  plane waves:    2767
 k-point  16 :  -0.4167-0.4167 0.0833  plane waves:    2770
 k-point  17 :  -0.2500-0.4167 0.0833  plane waves:    2766
 k-point  18 :  -0.2500-0.2500 0.0833  plane waves:    2771
 k-point  19 :   0.2500 0.2500 0.2500  plane waves:    2764
 k-point  20 :   0.4167 0.2500 0.2500  plane waves:    2768
 k-point  21 :  -0.4167 0.2500 0.2500  plane waves:    2757
 k-point  22 :  -0.2500 0.2500 0.2500  plane waves:    2763
 k-point  23 :   0.4167 0.4167 0.2500  plane waves:    2765
 k-point  24 :  -0.4167 0.4167 0.2500  plane waves:    2754
 k-point  25 :  -0.2500 0.4167 0.2500  plane waves:    2759
 k-point  26 :  -0.4167-0.4167 0.2500  plane waves:    2771
 k-point  27 :   0.4167 0.4167 0.4167  plane waves:    2767
 k-point  28 :  -0.4167 0.4167 0.4167  plane waves:    2767

 maximum and minimum number of plane-waves per node :      2771     2737

 maximum number of plane-waves:      2771
 maximum index in each direction: 
   IXMAX=   10   IYMAX=   10   IZMAX=    9
   IXMIN=  -10   IYMIN=  -10   IZMIN=  -10


 serial   3D FFT for wavefunctions
 parallel 3D FFT for charge:
    minimum data exchange during FFTs selected (reduces bandwidth)


 total amount of memory used by VASP MPI-rank0    98256. kBytes
=======================================================================

   base      :      30000. kBytes
   nonlr-proj:       8982. kBytes
   fftplans  :      19153. kBytes
   grid      :      16665. kBytes
   one-center:        393. kBytes
   wavefun   :      23063. kBytes
 
     INWAV:  cpu time      0.0001: real time      0.0003
 Broyden mixing: mesh for mixing (old mesh)
   NGX = 19   NGY = 19   NGZ = 19
  (NGX  = 80   NGY  = 80   NGZ  = 80)
  gives a total of   6859 points

 initial charge density was supplied:
 charge density of overlapping atoms calculated
 number of electron      51.0000000 magnetization       8.8000000
 keeping initial charge density in first step


--------------------------------------------------------------------------------------------------------


 Maximum index for non-local projection operator         14243
 Maximum index for augmentation-charges         96531 (set IRDMAX)


--------------------------------------------------------------------------------------------------------


 First call to EWALD:  gamma=   0.379
 Maximum number of real-space cells 3x 3x 3
 Maximum number of reciprocal cells 3x 3x 3

    FEWALD:  cpu time      0.0005: real time      0.0005


--------------------------------------- Iteration      1(   1)  ---------------------------------------


    POTLOK:  cpu time      0.0897: real time      0.1334
    SETDIJ:  cpu time      1.0112: real time      1.0116
     EDDAV:  cpu time      2.4288: real time      2.4310
 BZINTS: Fermi energy:   13.462519;   51.000000 electrons
         Band energy: 0.943604E+01;  BLOECHL correction:   -0.437210
       DOS:  cpu time      0.1471: real time      0.1472
    --------------------------------------------
      LOOP:  cpu time      3.6769: real time      3.7232

 eigenvalue-minimisations  :  5900
 total energy-change (2. order) : 0.4256732E+03  (-0.2170528E+04)
 number of electron      51.0000000 magnetization       8.8000000
 augmentation part       51.0000000 magnetization       8.8000000

 Free energy of the ion-electron system (eV)
  ---------------------------------------------------
  alpha Z        PSCENC =       433.79006155
  Ewald energy   TEWEN  =     -4730.79361358
  -Hartree energ DENC   =     -1619.83650225
  -exchange      EXHF   =         0.00000000
  -V(xc)+E(xc)   XCENC  =       100.32431005
  PAW double counting   =      5433.39567342    -5538.44139287
  entropy T*S    EENTRO =         0.00000000
  eigenvalues    EBANDS =         9.43604367
  atomic energy  EATOM  =      6337.79865788
  Solvation  Ediel_sol  =         0.00000000
  ---------------------------------------------------
  free energy    TOTEN  =       425.67323787 eV

  energy without entropy =      425.67323787  energy(sigma->0) =      425.67323787


--------------------------------------------------------------------------------------------------------




--------------------------------------- Iteration      1(   2)  ---------------------------------------


     EDDAV:  cpu time      2.6077: real time      2.6095
 BZINTS: Fermi energy:    2.303147;   51.000000 electrons
         Band energy:-0.386438E+03;  BLOECHL correction:   -0.069926
       DOS:  cpu time      0.1165: real time      0.1166
    --------------------------------------------
      LOOP:  cpu time      2.7241: real time      2.7261

 eigenvalue-minimisations  :  6408
 total energy-change (2. order) :-0.3958740E+03  (-0.3680664E+03)
 number of electron      51.0000000 magnetization       8.8000000
 augmentation part       51.0000000 magnetization       8.8000000

 Free energy of the ion-electron system (eV)
  ---------------------------------------------------
  alpha Z        PSCENC =       433.79006155
  Ewald energy   TEWEN  =     -4730.79361358
  -Hartree energ DENC   =     -1619.83650225
  -exchange      EXHF   =         0.00000000
  -V(xc)+E(xc)   XCENC  =       100.32431005
  PAW double counting   =      5433.39567342    -5538.44139287
  entropy T*S    EENTRO =         0.00000000
  eigenvalues    EBANDS =      -386.43791038
  atomic energy  EATOM  =      6337.79865788
  Solvation  Ediel_sol  =         0.00000000
  ---------------------------------------------------
  free energy    TOTEN  =        29.79928382 eV

  energy without entropy =       29.79928382  energy(sigma->0) =       29.79928382


--------------------------------------------------------------------------------------------------------




--------------------------------------- Iteration      1(   3)  ---------------------------------------


     EDDAV:  cpu time      2.7193: real time      2.7210
 WARNING: Fermi level nearly degenerate with energies of tetrahedron. This may
     result in numerical instabilities because the density changes by tiny
     changes of the Fermi energy. If the calculation converges, the total
     energy will still be reliable. If you notice convergence issues, you can
     try to
     *) Use a Gamma centered k-point grid
     *) Use tetrahedron method without corrections ISMEAR = -4
     *) Don't use tetrahedron method
        ISMEAR = 0 for semiconductors, 1 or 2 for metals

 BZINTS: Fermi energy:    1.252486;   51.000966 electrons
         Band energy:-0.436739E+03;  BLOECHL correction:   -0.028232
       DOS:  cpu time      0.0974: real time      0.0974
    --------------------------------------------
      LOOP:  cpu time      2.8167: real time      2.8184

 eigenvalue-minimisations  :  6712
 total energy-change (2. order) :-0.5030182E+02  (-0.4896368E+02)
 number of electron      51.0000000 magnetization       8.8000000
 augmentation part       51.0000000 magnetization       8.8000000

 Free energy of the ion-electron system (eV)
  ---------------------------------------------------
  alpha Z        PSCENC =       433.79006155
  Ewald energy   TEWEN  =     -4730.79361358
  -Hartree energ DENC   =     -1619.83650225
  -exchange      EXHF   =         0.00000000
  -V(xc)+E(xc)   XCENC  =       100.32431005
  PAW double counting   =      5433.39567342    -5538.44139287
  entropy T*S    EENTRO =         0.00000000
  eigenvalues    EBANDS =      -436.73972563
  atomic energy  EATOM  =      6337.79865788
  Solvation  Ediel_sol  =         0.00000000
  ---------------------------------------------------
  free energy    TOTEN  =       -20.50253144 eV

  energy without entropy =      -20.50253144  energy(sigma->0) =      -20.50253144


--------------------------------------------------------------------------------------------------------




--------------------------------------- Iteration      1(   4)  ---------------------------------------


     EDDAV:  cpu time      2.8552: real time      2.8579
 BZINTS: Fermi energy:    1.223834;   51.000000 electrons
         Band energy:-0.439494E+03;  BLOECHL correction:   -0.028198
       DOS:  cpu time      0.1169: real time      0.1169
    --------------------------------------------
      LOOP:  cpu time      2.9721: real time      2.9748

 eigenvalue-minimisations  :  7160
 total energy-change (2. order) :-0.2754002E+01  (-0.2699430E+01)
 number of electron      51.0000000 magnetization       8.8000000
 augmentation part       51.0000000 magnetization       8.8000000

 Free energy of the ion-electron system (eV)
  ---------------------------------------------------
  alpha Z        PSCENC =       433.79006155
  Ewald energy   TEWEN  =     -4730.79361358
  -Hartree energ DENC   =     -1619.83650225
  -exchange      EXHF   =         0.00000000
  -V(xc)+E(xc)   XCENC  =       100.32431005
  PAW double counting   =      5433.39567342    -5538.44139287
  entropy T*S    EENTRO =         0.00000000
  eigenvalues    EBANDS =      -439.49372788
  atomic energy  EATOM  =      6337.79865788
  Solvation  Ediel_sol  =         0.00000000
  ---------------------------------------------------
  free energy    TOTEN  =       -23.25653369 eV

  energy without entropy =      -23.25653369  energy(sigma->0) =      -23.25653369


--------------------------------------------------------------------------------------------------------




--------------------------------------- Iteration      1(   5)  ---------------------------------------


     EDDAV:  cpu time      2.6691: real time      2.6739
 BZINTS: Fermi energy:    1.223502;   51.000000 electrons
         Band energy:-0.439848E+03;  BLOECHL correction:   -0.029503
       DOS:  cpu time      0.1221: real time      0.1222
    CHARGE:  cpu time      0.1428: real time      0.1429
    MIXING:  cpu time      0.0012: real time      0.0012
    --------------------------------------------
      LOOP:  cpu time      2.9352: real time      2.9401

 eigenvalue-minimisations  :  6480
 total energy-change (2. order) :-0.3542404E+00  (-0.3528612E+00)
 number of electron      51.0000001 magnetization       1.9386848
 augmentation part       25.8654415 magnetization       1.4153603

 Broyden mixing:
  rms(total) = 0.36441E+01    rms(broyden)= 0.36441E+01
  rms(prec ) = 0.89786E+01
  weight for this iteration     100.00

 Free energy of the ion-electron system (eV)
  ---------------------------------------------------
  alpha Z        PSCENC =       433.79006155
  Ewald energy   TEWEN  =     -4730.79361358
  -Hartree energ DENC   =     -1619.83650225
  -exchange      EXHF   =         0.00000000
  -V(xc)+E(xc)   XCENC  =       100.32431005
  PAW double counting   =      5433.39567342    -5538.44139287
  entropy T*S    EENTRO =         0.00000000
  eigenvalues    EBANDS =      -439.84796829
  atomic energy  EATOM  =      6337.79865788
  Solvation  Ediel_sol  =         0.00000000
  ---------------------------------------------------
  free energy    TOTEN  =       -23.61077409 eV

  energy without entropy =      -23.61077409  energy(sigma->0) =      -23.61077409


--------------------------------------------------------------------------------------------------------




--------------------------------------- Iteration      1(   6)  ---------------------------------------


    POTLOK:  cpu time      0.0073: real time      0.0078
    SETDIJ:  cpu time      0.9992: real time      0.9999
    EDDIAG:  cpu time      0.1572: real time      0.1572
  RMM-DIIS:  cpu time      1.6311: real time      1.6336
    ORTHCH:  cpu time      0.0642: real time      0.0642
 BZINTS: Fermi energy:    4.853262;   51.000000 electrons
         Band energy:-0.343251E+03;  BLOECHL correction:   -0.063999
       DOS:  cpu time      0.1086: real time      0.1086
    CHARGE:  cpu time      0.1404: real time      0.1405
    MIXING:  cpu time      0.0017: real time      0.0076
    --------------------------------------------
      LOOP:  cpu time      3.1096: real time      3.1195

 eigenvalue-minimisations  :  7262
 total energy-change (2. order) :-0.2354842E+03  (-0.1882014E+02)
 number of electron      51.0000001 magnetization       1.2150144
 augmentation part       15.8330191 magnetization       1.3179820

 Broyden mixing:
  rms(total) = 0.75815E+01    rms(broyden)= 0.75815E+01
  rms(prec ) = 0.19778E+02
  weight for this iteration     100.00

 eigenvalues of (default mixing * dielectric matrix)
  average eigenvalue GAMMA=   0.3205
  0.3205

 Free energy of the ion-electron system (eV)
  ---------------------------------------------------
  alpha Z        PSCENC =       433.79006155
  Ewald energy   TEWEN  =     -4730.79361358
  -Hartree energ DENC   =     -1830.50183306
  -exchange      EXHF   =         0.00000000
  -V(xc)+E(xc)   XCENC  =       105.07358922
  PAW double counting   =      5965.80498660    -6197.01591907
  entropy T*S    EENTRO =         0.00000000
  eigenvalues    EBANDS =      -343.25092784
  atomic energy  EATOM  =      6337.79865788
  Solvation  Ediel_sol  =         0.00000000
  ---------------------------------------------------
  free energy    TOTEN  =      -259.09499830 eV

  energy without entropy =     -259.09499830  energy(sigma->0) =     -259.09499830


--------------------------------------------------------------------------------------------------------




--------------------------------------- Iteration      1(   7)  ---------------------------------------


    POTLOK:  cpu time      0.0073: real time      0.0076
    SETDIJ:  cpu time      1.0040: real time      1.0046
    EDDIAG:  cpu time      0.1574: real time      0.1576
  RMM-DIIS:  cpu time      1.1784: real time      1.1789
    ORTHCH:  cpu time      0.0641: real time      0.0642
 BZINTS: Fermi energy:    5.447725;   51.000000 electrons
         Band energy:-0.376898E+03;  BLOECHL correction:   -0.029374
       DOS:  cpu time      0.1113: real time      0.1113
    CHARGE:  cpu time      0.1405: real time      0.1406
    MIXING:  cpu time      0.0013: real time      0.0013
    --------------------------------------------
      LOOP:  cpu time      2.6643: real time      2.6661

 eigenvalue-minimisations  :  5699
 total energy-change (2. order) : 0.1876433E+03  (-0.3099850E+01)
 number of electron      51.0000001 magnetization       1.4605402
 augmentation part       15.6444007 magnetization       1.2226524

 Broyden mixing:
  rms(total) = 0.63007E+01    rms(broyden)= 0.63007E+01
  rms(prec ) = 0.16392E+02
  weight for this iteration     100.00

 eigenvalues of (default mixing * dielectric matrix)
  average eigenvalue GAMMA=   0.8842
  0.8842  0.8842

 Free energy of the ion-electron system (eV)
  ---------------------------------------------------
  alpha Z        PSCENC =       433.79006155
  Ewald energy   TEWEN  =     -4730.79361358
  -Hartree energ DENC   =     -1674.04248877
  -exchange      EXHF   =         0.00000000
  -V(xc)+E(xc)   XCENC  =        99.65776229
  PAW double counting   =      5718.91499368    -5879.87918246
  entropy T*S    EENTRO =         0.00000000
  eigenvalues    EBANDS =      -376.89786222
  atomic energy  EATOM  =      6337.79865788
  Solvation  Ediel_sol  =         0.00000000
  ---------------------------------------------------
  free energy    TOTEN  =       -71.45167162 eV

  energy without entropy =      -71.45167162  energy(sigma->0) =      -71.45167162


--------------------------------------------------------------------------------------------------------




--------------------------------------- Iteration      1(   8)  ---------------------------------------


    POTLOK:  cpu time      0.0073: real time      0.0079
    SETDIJ:  cpu time      0.9987: real time      0.9990
    EDDIAG:  cpu time      0.1575: real time      0.1576
  RMM-DIIS:  cpu time      1.6663: real time      1.6671
    ORTHCH:  cpu time      0.0644: real time      0.0644
 BZINTS: Fermi energy:   -0.625027;   51.000000 electrons
         Band energy:-0.648863E+03;  BLOECHL correction:   -0.022167
       DOS:  cpu time      0.1076: real time      0.1076
    CHARGE:  cpu time      0.1412: real time      0.1413
    MIXING:  cpu time      0.0014: real time      0.0014
    --------------------------------------------
      LOOP:  cpu time      3.1443: real time      3.1463

 eigenvalue-minimisations  :  7753
 total energy-change (2. order) :-0.3697553E+02  (-0.1758924E+02)
 number of electron      51.0000001 magnetization       0.9267821
 augmentation part       28.9551929 magnetization       0.5623235

 Broyden mixing:
  rms(total) = 0.64222E+01    rms(broyden)= 0.64222E+01
  rms(prec ) = 0.15505E+02
  weight for this iteration     100.00

 eigenvalues of (default mixing * dielectric matrix)
  average eigenvalue GAMMA=   0.6138
  0.8645  0.8645  0.1124

 Free energy of the ion-electron system (eV)
  ---------------------------------------------------
  alpha Z        PSCENC =       433.79006155
  Ewald energy   TEWEN  =     -4730.79361358
  -Hartree energ DENC   =     -1510.09948894
  -exchange      EXHF   =         0.00000000
  -V(xc)+E(xc)   XCENC  =        93.79968677
  PAW double counting   =      5592.77611910    -5676.83583529
  entropy T*S    EENTRO =         0.00000000
  eigenvalues    EBANDS =      -648.86278637
  atomic energy  EATOM  =      6337.79865788
  Solvation  Ediel_sol  =         0.00000000
  ---------------------------------------------------
  free energy    TOTEN  =      -108.42719887 eV

  energy without entropy =     -108.42719887  energy(sigma->0) =     -108.42719887


--------------------------------------------------------------------------------------------------------




--------------------------------------- Iteration      1(   9)  ---------------------------------------


    POTLOK:  cpu time      0.0073: real time      0.0081
    SETDIJ:  cpu time      0.9996: real time      1.0000
    EDDIAG:  cpu time      0.1575: real time      0.1576
  RMM-DIIS:  cpu time      1.4573: real time      1.4581
    ORTHCH:  cpu time      0.0643: real time      0.0644
 BZINTS: Fermi energy:   -0.747037;   51.000000 electrons
         Band energy:-0.648893E+03;  BLOECHL correction:   -0.019658
       DOS:  cpu time      0.1015: real time      0.1015
    CHARGE:  cpu time      0.1423: real time      0.1424
    MIXING:  cpu time      0.0013: real time      0.0013
    --------------------------------------------
      LOOP:  cpu time      2.9312: real time      2.9333

 eigenvalue-minimisations  :  6980
 total energy-change (2. order) :-0.1670399E+01  (-0.3548840E+01)
 number of electron      51.0000001 magnetization       0.0912968
 augmentation part       28.7022161 magnetization      -0.2809426

 Broyden mixing:
  rms(total) = 0.56661E+01    rms(broyden)= 0.56661E+01
  rms(prec ) = 0.15227E+02
  weight for this iteration     100.00

 eigenvalues of (default mixing * dielectric matrix)
  average eigenvalue GAMMA=   0.6346
  1.3232  0.3788  0.3788  0.4576

 Free energy of the ion-electron system (eV)
  ---------------------------------------------------
  alpha Z        PSCENC =       433.79006155
  Ewald energy   TEWEN  =     -4730.79361358
  -Hartree energ DENC   =     -1504.33329365
  -exchange      EXHF   =         0.00000000
  -V(xc)+E(xc)   XCENC  =        93.56073024
  PAW double counting   =      5643.54551271    -5734.77295732
  entropy T*S    EENTRO =         0.00000000
  eigenvalues    EBANDS =      -648.89269528
  atomic energy  EATOM  =      6337.79865788
  Solvation  Ediel_sol  =         0.00000000
  ---------------------------------------------------
  free energy    TOTEN  =      -110.09759744 eV

  energy without entropy =     -110.09759744  energy(sigma->0) =     -110.09759744


--------------------------------------------------------------------------------------------------------




--------------------------------------- Iteration      1(  10)  ---------------------------------------


    POTLOK:  cpu time      0.0073: real time      0.0081
    SETDIJ:  cpu time      0.9966: real time      0.9969
    EDDIAG:  cpu time      0.1575: real time      0.1576
  RMM-DIIS:  cpu time      1.4383: real time      1.4389
    ORTHCH:  cpu time      0.0641: real time      0.0641
 BZINTS: Fermi energy:   -0.850437;   51.000000 electrons
         Band energy:-0.602049E+03;  BLOECHL correction:   -0.019257
       DOS:  cpu time      0.1041: real time      0.1041
    CHARGE:  cpu time      0.1404: real time      0.1404
    MIXING:  cpu time      0.0017: real time      0.0017
    --------------------------------------------
      LOOP:  cpu time      2.9100: real time      2.9118

 eigenvalue-minimisations  :  6881
 total energy-change (2. order) : 0.2228513E+02  (-0.9816302E+00)
 number of electron      51.0000001 magnetization       0.0179331
 augmentation part       28.5232588 magnetization      -0.1618081

 Broyden mixing:
  rms(total) = 0.54381E+01    rms(broyden)= 0.54381E+01
  rms(prec ) = 0.14828E+02
  weight for this iteration     100.00

 eigenvalues of (default mixing * dielectric matrix)
  average eigenvalue GAMMA=   0.6740
  1.3012  0.4871  0.4871  0.5472  0.5472

 Free energy of the ion-electron system (eV)
  ---------------------------------------------------
  alpha Z        PSCENC =       433.79006155
  Ewald energy   TEWEN  =     -4730.79361358
  -Hartree energ DENC   =     -1514.29593763
  -exchange      EXHF   =         0.00000000
  -V(xc)+E(xc)   XCENC  =        94.01207904
  PAW double counting   =      5719.54051719    -5825.81486490
  entropy T*S    EENTRO =         0.00000000
  eigenvalues    EBANDS =      -602.04936770
  atomic energy  EATOM  =      6337.79865788
  Solvation  Ediel_sol  =         0.00000000
  ---------------------------------------------------
  free energy    TOTEN  =       -87.81246815 eV

  energy without entropy =      -87.81246815  energy(sigma->0) =      -87.81246815


--------------------------------------------------------------------------------------------------------




--------------------------------------- Iteration      1(  11)  ---------------------------------------


    POTLOK:  cpu time      0.0068: real time      0.0075
    SETDIJ:  cpu time      1.0085: real time      1.0089
    EDDIAG:  cpu time      0.1575: real time      0.1576
  RMM-DIIS:  cpu time      1.5325: real time      1.5331
    ORTHCH:  cpu time      0.0642: real time      0.0642
 BZINTS: Fermi energy:    1.272755;   51.000000 electrons
         Band energy:-0.436980E+03;  BLOECHL correction:   -0.005914
       DOS:  cpu time      0.1189: real time      0.1189
    CHARGE:  cpu time      0.1399: real time      0.1400
    MIXING:  cpu time      0.0014: real time      0.0014
    --------------------------------------------
      LOOP:  cpu time      3.0296: real time      3.0315

 eigenvalue-minimisations  :  7181
 total energy-change (2. order) : 0.6887373E+02  (-0.2642275E+01)
 number of electron      51.0000001 magnetization       0.0770742
 augmentation part       25.4071065 magnetization       0.0082637

 Broyden mixing:
  rms(total) = 0.30204E+01    rms(broyden)= 0.30204E+01
  rms(prec ) = 0.79674E+01
  weight for this iteration     100.00

 eigenvalues of (default mixing * dielectric matrix)
  average eigenvalue GAMMA=   0.5616
  1.2947  0.4873  0.4873  0.5482  0.5482  0.0040

 Free energy of the ion-electron system (eV)
  ---------------------------------------------------
  alpha Z        PSCENC =       433.79006155
  Ewald energy   TEWEN  =     -4730.79361358
  -Hartree energ DENC   =     -1581.11630075
  -exchange      EXHF   =         0.00000000
  -V(xc)+E(xc)   XCENC  =        96.46336886
  PAW double counting   =      5790.60123315    -5928.70165546
  entropy T*S    EENTRO =         0.00000000
  eigenvalues    EBANDS =      -436.98048543
  atomic energy  EATOM  =      6337.79865788
  Solvation  Ediel_sol  =         0.00000000
  ---------------------------------------------------
  free energy    TOTEN  =       -18.93873378 eV

  energy without entropy =      -18.93873378  energy(sigma->0) =      -18.93873378


--------------------------------------------------------------------------------------------------------




--------------------------------------- Iteration      1(  12)  ---------------------------------------


    POTLOK:  cpu time      0.0073: real time      0.0077
    SETDIJ:  cpu time      1.0046: real time      1.0049
    EDDIAG:  cpu time      0.1573: real time      0.1574
  RMM-DIIS:  cpu time      1.5797: real time      1.5814
    ORTHCH:  cpu time      0.0641: real time      0.0642
 BZINTS: Fermi energy:    1.758809;   51.000000 electrons
         Band energy:-0.431185E+03;  BLOECHL correction:   -0.002226
       DOS:  cpu time      0.1157: real time      0.1158
    CHARGE:  cpu time      0.1402: real time      0.1402
    MIXING:  cpu time      0.0015: real time      0.0015
    --------------------------------------------
      LOOP:  cpu time      3.0704: real time      3.0730

 eigenvalue-minimisations  :  7411
 total energy-change (2. order) : 0.1318242E+01  (-0.2709895E+00)
 number of electron      51.0000001 magnetization      -0.1664349
 augmentation part       24.6803325 magnetization      -0.2923413

 Broyden mixing:
  rms(total) = 0.23861E+01    rms(broyden)= 0.23860E+01
  rms(prec ) = 0.65163E+01
  weight for this iteration     100.00

 eigenvalues of (default mixing * dielectric matrix)
  average eigenvalue GAMMA=   0.5770
  1.3006  0.6809  0.6809  0.4803  0.4803  0.3347  0.0816

 Free energy of the ion-electron system (eV)
  ---------------------------------------------------
  alpha Z        PSCENC =       433.79006155
  Ewald energy   TEWEN  =     -4730.79361358
  -Hartree energ DENC   =     -1584.41975329
  -exchange      EXHF   =         0.00000000
  -V(xc)+E(xc)   XCENC  =        96.57680602
  PAW double counting   =      5792.14777071    -5931.53523416
  entropy T*S    EENTRO =         0.00000000
  eigenvalues    EBANDS =      -431.18518649
  atomic energy  EATOM  =      6337.79865788
  Solvation  Ediel_sol  =         0.00000000
  ---------------------------------------------------
  free energy    TOTEN  =       -17.62049136 eV

  energy without entropy =      -17.62049136  energy(sigma->0) =      -17.62049136


--------------------------------------------------------------------------------------------------------




--------------------------------------- Iteration      1(  13)  ---------------------------------------


    POTLOK:  cpu time      0.0068: real time      0.0080
    SETDIJ:  cpu time      1.0053: real time      1.0056
    EDDIAG:  cpu time      0.1573: real time      0.1574
  RMM-DIIS:  cpu time      1.5942: real time      1.5950
    ORTHCH:  cpu time      0.0639: real time      0.0641
 BZINTS: Fermi energy:    2.798910;   51.000000 electrons
         Band energy:-0.420472E+03;  BLOECHL correction:   -0.006308
       DOS:  cpu time      0.1191: real time      0.1191
    CHARGE:  cpu time      0.1408: real time      0.1408
    MIXING:  cpu time      0.0015: real time      0.0015
    --------------------------------------------
      LOOP:  cpu time      3.0889: real time      3.0915

 eigenvalue-minimisations  :  7634
 total energy-change (2. order) : 0.1464428E+01  (-0.1369544E+00)
 number of electron      51.0000001 magnetization      -0.5723713
 augmentation part       22.2911758 magnetization      -0.6795041

 Broyden mixing:
  rms(total) = 0.73337E+00    rms(broyden)= 0.73308E+00
  rms(prec ) = 0.21130E+01
  weight for this iteration     100.00

 eigenvalues of (default mixing * dielectric matrix)
  average eigenvalue GAMMA=   0.5364
  1.5309  0.5723  0.5723  0.5049  0.5049  0.3375  0.1343  0.1343

 Free energy of the ion-electron system (eV)
  ---------------------------------------------------
  alpha Z        PSCENC =       433.79006155
  Ewald energy   TEWEN  =     -4730.79361358
  -Hartree energ DENC   =     -1590.95451657
  -exchange      EXHF   =         0.00000000
  -V(xc)+E(xc)   XCENC  =        96.78126646
  PAW double counting   =      5807.25046417    -5949.55623861
  entropy T*S    EENTRO =         0.00000000
  eigenvalues    EBANDS =      -420.47214466
  atomic energy  EATOM  =      6337.79865788
  Solvation  Ediel_sol  =         0.00000000
  ---------------------------------------------------
  free energy    TOTEN  =       -16.15606336 eV

  energy without entropy =      -16.15606336  energy(sigma->0) =      -16.15606336


--------------------------------------------------------------------------------------------------------




--------------------------------------- Iteration      1(  14)  ---------------------------------------


    POTLOK:  cpu time      0.0073: real time      0.0082
    SETDIJ:  cpu time      1.0043: real time      1.0049
    EDDIAG:  cpu time      0.1573: real time      0.1578
  RMM-DIIS:  cpu time      1.5731: real time      1.5740
    ORTHCH:  cpu time      0.0643: real time      0.0643
 BZINTS: Fermi energy:    2.624236;   51.000000 electrons
         Band energy:-0.423624E+03;  BLOECHL correction:   -0.017233
       DOS:  cpu time      0.1156: real time      0.1157
    CHARGE:  cpu time      0.1405: real time      0.1405
    MIXING:  cpu time      0.0016: real time      0.0016
    --------------------------------------------
      LOOP:  cpu time      3.0640: real time      3.0670

 eigenvalue-minimisations  :  7547
 total energy-change (2. order) :-0.1199413E+01  (-0.4256894E-01)
 number of electron      51.0000001 magnetization      -0.8113964
 augmentation part       22.7591056 magnetization      -0.7054552

 Broyden mixing:
  rms(total) = 0.15725E+01    rms(broyden)= 0.15725E+01
  rms(prec ) = 0.30685E+01
  weight for this iteration     100.00

 eigenvalues of (default mixing * dielectric matrix)
  average eigenvalue GAMMA=   0.5541
  1.5708  0.7493  0.7493  0.4811  0.4811  0.3953  0.2353  0.2353  0.0896

 Free energy of the ion-electron system (eV)
  ---------------------------------------------------
  alpha Z        PSCENC =       433.79006155
  Ewald energy   TEWEN  =     -4730.79361358
  -Hartree energ DENC   =     -1589.22404676
  -exchange      EXHF   =         0.00000000
  -V(xc)+E(xc)   XCENC  =        96.74832139
  PAW double counting   =      5810.63855996    -5952.68935448
  entropy T*S    EENTRO =         0.00000000
  eigenvalues    EBANDS =      -423.62406195
  atomic energy  EATOM  =      6337.79865788
  Solvation  Ediel_sol  =         0.00000000
  ---------------------------------------------------
  free energy    TOTEN  =       -17.35547599 eV

  energy without entropy =      -17.35547599  energy(sigma->0) =      -17.35547599


--------------------------------------------------------------------------------------------------------




--------------------------------------- Iteration      1(  15)  ---------------------------------------


    POTLOK:  cpu time      0.0073: real time      0.0079
    SETDIJ:  cpu time      1.0127: real time      1.0134
    EDDIAG:  cpu time      0.1578: real time      0.1580
  RMM-DIIS:  cpu time      1.6338: real time      1.6349
    ORTHCH:  cpu time      0.0642: real time      0.0642
 BZINTS: Fermi energy:    4.112572;   51.000000 electrons
         Band energy:-0.405350E+03;  BLOECHL correction:   -0.006129
       DOS:  cpu time      0.1062: real time      0.1063
    CHARGE:  cpu time      0.1395: real time      0.1397
    MIXING:  cpu time      0.0016: real time      0.0016
    --------------------------------------------
      LOOP:  cpu time      3.1231: real time      3.1259

 eigenvalue-minimisations  :  7781
 total energy-change (2. order) :-0.3497751E+01  (-0.1671084E+00)
 number of electron      51.0000001 magnetization      -0.9078288
 augmentation part       19.3361293 magnetization      -0.6028522

 Broyden mixing:
  rms(total) = 0.23441E+01    rms(broyden)= 0.23440E+01
  rms(prec ) = 0.49638E+01
  weight for this iteration     100.00

 eigenvalues of (default mixing * dielectric matrix)
  average eigenvalue GAMMA=   0.5229
  1.5433  0.7689  0.7689  0.4874  0.4874  0.3891  0.2682  0.2682  0.1514  0.0961

 Free energy of the ion-electron system (eV)
  ---------------------------------------------------
  alpha Z        PSCENC =       433.79006155
  Ewald energy   TEWEN  =     -4730.79361358
  -Hartree energ DENC   =     -1603.25023466
  -exchange      EXHF   =         0.00000000
  -V(xc)+E(xc)   XCENC  =        97.25657429
  PAW double counting   =      5824.98930935    -5975.29372052
  entropy T*S    EENTRO =         0.00000000
  eigenvalues    EBANDS =      -405.35026127
  atomic energy  EATOM  =      6337.79865788
  Solvation  Ediel_sol  =         0.00000000
  ---------------------------------------------------
  free energy    TOTEN  =       -20.85322697 eV

  energy without entropy =      -20.85322697  energy(sigma->0) =      -20.85322697


--------------------------------------------------------------------------------------------------------




--------------------------------------- Iteration      1(  16)  ---------------------------------------


    POTLOK:  cpu time      0.0074: real time      0.0079
    SETDIJ:  cpu time      1.0052: real time      1.0056
    EDDIAG:  cpu time      0.1575: real time      0.1576
  RMM-DIIS:  cpu time      1.5585: real time      1.5598
    ORTHCH:  cpu time      0.0643: real time      0.0643
 BZINTS: Fermi energy:    4.064179;   51.000000 electrons
         Band energy:-0.404992E+03;  BLOECHL correction:   -0.009692
       DOS:  cpu time      0.1206: real time      0.1206
    CHARGE:  cpu time      0.1405: real time      0.1406
    MIXING:  cpu time      0.0016: real time      0.0016
    --------------------------------------------
      LOOP:  cpu time      3.0556: real time      3.0581

 eigenvalue-minimisations  :  7441
 total energy-change (2. order) : 0.1609805E+01  (-0.4687592E-01)
 number of electron      51.0000001 magnetization      -1.0032824
 augmentation part       19.3080845 magnetization      -0.9183452

 Broyden mixing:
  rms(total) = 0.20043E+01    rms(broyden)= 0.20042E+01
  rms(prec ) = 0.48769E+01
  weight for this iteration     100.00

 eigenvalues of (default mixing * dielectric matrix)
  average eigenvalue GAMMA=   0.5029
  1.6635  0.7282  0.7282  0.4915  0.4915  0.3250  0.3250  0.3880  0.1774  0.1267
  0.0873

 Free energy of the ion-electron system (eV)
  ---------------------------------------------------
  alpha Z        PSCENC =       433.79006155
  Ewald energy   TEWEN  =     -4730.79361358
  -Hartree energ DENC   =     -1602.03689248
  -exchange      EXHF   =         0.00000000
  -V(xc)+E(xc)   XCENC  =        97.21948107
  PAW double counting   =      5825.59582134    -5975.82532780
  entropy T*S    EENTRO =         0.00000000
  eigenvalues    EBANDS =      -404.99160982
  atomic energy  EATOM  =      6337.79865788
  Solvation  Ediel_sol  =         0.00000000
  ---------------------------------------------------
  free energy    TOTEN  =       -19.24342184 eV

  energy without entropy =      -19.24342184  energy(sigma->0) =      -19.24342184


--------------------------------------------------------------------------------------------------------




--------------------------------------- Iteration      1(  17)  ---------------------------------------


    POTLOK:  cpu time      0.0073: real time      0.0083
    SETDIJ:  cpu time      1.0062: real time      1.0066
    EDDIAG:  cpu time      0.1574: real time      0.1574
  RMM-DIIS:  cpu time      1.3996: real time      1.4000
    ORTHCH:  cpu time      0.0641: real time      0.0641
 BZINTS: Fermi energy:    4.189107;   51.000000 electrons
         Band energy:-0.406486E+03;  BLOECHL correction:   -0.011296
       DOS:  cpu time      0.1133: real time      0.1133
    CHARGE:  cpu time      0.1401: real time      0.1402
    MIXING:  cpu time      0.0017: real time      0.0017
    --------------------------------------------
      LOOP:  cpu time      2.8896: real time      2.8916

 eigenvalue-minimisations  :  6692
 total energy-change (2. order) : 0.8372488E+00  (-0.2367067E-01)
 number of electron      51.0000001 magnetization      -1.1249001
 augmentation part       19.1648281 magnetization      -1.0155172

 Broyden mixing:
  rms(total) = 0.21193E+01    rms(broyden)= 0.21193E+01
  rms(prec ) = 0.51728E+01
  weight for this iteration     100.00

[...]
  352                map_gather                            0.000233                   12   7
  353                m_alltoallv_z                         0.000130                   12   7
  354                map_scatter                           0.000440                   12   7
  355        m_sumb_d                              0.000029                            5   3
  356        forhar                                0.001302                            2   3
  357          m_sumb_d                              0.000014                          2   4
  358        strehar                               0.000836                            1   3
  359          m_sumb_d                              0.000073                          1   4
  360        chggra                                0.000740                            1   3
  361          fft3d_mpi                             0.000441                          3   4
  362            fftbrc_mpi                            0.000347                        3   5
  363              fftbas_plan_mpi                       0.000345                      3   6
  364                map_forward                           0.000186                    4   7
  365                  map_gather                            0.000040                  2   8
  366                  m_alltoallv_z                         0.000024                  2   8
  367                  map_scatter                           0.000093                  2   8
  368                map_backward                          0.000077                    2   7
  369                  map_gather                            0.000019                  1   8
  370                  m_alltoallv_z                         0.000011                  1   8
  371                  map_scatter                           0.000033                  1   8
  372          m_sumb_d                              0.000010                          2   4
  373          pothar                                0.000074                          1   4
  374            m_sumb_d                              0.000007                        1   5
  375        brmix                                 0.004756                            1   3
  376          m_sumb_d                              0.000030                          6   4
  377          brpre                                 0.000014                          2   4
  378          setg0                                 0.000452                          1   4
  379          broyd                                 0.003744                          1   4
  380            m_sumb_d                              0.000284                       51   5
  381            brget                                 0.000642                      229   5
  382            brsav                                 0.000135                       49   5
  383        m_bcast_d                             0.000016                            2   3
  384      potlok                                0.018600                              2   2
  385        fft3d_mpi                             0.012307                           36   3
  386          fftbrc_mpi                            0.010383                         36   4
  387            fftbas_plan_mpi                       0.010367                       36   5
  388              map_forward                           0.003063                     40   6
  389                map_gather                            0.001049                   24   7
  390                m_alltoallv_z                         0.000921                   24   7
  391                map_scatter                           0.000917                   24   7
  392              map_backward                          0.002508                     32   6
  393                map_gather                            0.000790                   16   7
  394                m_alltoallv_z                         0.000762                   16   7
  395                map_scatter                           0.000788                   16   7
  396              dfftw_execute                         0.003208                     30   6
  397        m_sumb_d                              0.000024                            5   3
  398        pothar                                0.000684                            2   3
  399          m_sumb_d                              0.000047                          2   4
  400        m_bcast_d                             0.001122                            4   3
  401      potlok_metagga                        0.000000                              1   2
  402      set_dd_magatom                        0.000004                              1   2
  403      set_dd_paw                            0.924927                              1   2
  404        m_sumb_d                              0.463927                            7   3
  405      augmentation_charge                   0.070601                              1   2
  406        fft3d_mpi                             0.016438                            2   3
  407          fftbrc_mpi                            0.014619                          2   4
  408            fftbas_plan_mpi                       0.014617                        2   5
  409              dfftw_execute                         0.008964                      6   6
  410              map_backward                          0.005512                      4   6
  411                map_gather                            0.001406                    2   7
  412                m_alltoallv_z                         0.002880                    2   7
  413                map_scatter                           0.001218                    2   7
  414      densta                                2.965142                              1   2
 
 Flat profile
 ============
 
             routine name                   CPU           calls
 ---------------------------------------------------------------
 m_sumb_d                               38.396855       30802
 set_dd_paw                             31.035332          67
 raccmu_                                14.254037       38487
 eccp                                   13.533709      177909
 init_acc                               11.340669           1
 w1_gemv                                10.885738      459270
 densta                                 10.506706          70
 i2                                      9.259272       32536
 eccp_nl                                 7.750813      143133
 total_time                              7.038358           1
 phaser                                  6.386510        4228
 setdij_                                 4.675445          93
 eddiag                                  4.088832          64
 redis_pw                                3.882464       55295
 overl1                                  3.831711      229635
 cnorma                                  3.805813      143133
 eddrmm                                  3.700043          64
 augmentation_charge                     3.579500          66
 m_alltoall_d                            2.782356      434651
 fft3d                                   2.724092      380059
 eddav                                   2.686112           5
 lapack                                  2.664778        5951
 acc_init_cublas                         2.461008           1
 fftwav                                  2.191478      226241
 w1_dscal                                2.113920      346740
 dfftw_execute                           1.996609        1980
 w1_copy                                 1.959269      364686
 soft_charge                             1.951715          65
 w1_gaxpy                                1.894256      355016
 apply_precond                           1.812669      395437
 rpromu_acc                              1.552549       39271
 hamilt_local                            1.431127       32256
 racc0mu_acc                             1.292291       38487
 setup_precond                           1.229550       34776
 w1_daxpy                                1.179570      221754
 newband                                 1.003300       42351
 hamiltmu                                0.893073       38487
 w1_dot                                  0.881587       32256
 redis_proj                              0.820933       59932
 acc_init_cusolver                       0.801105           1
 m_alltoallv_z                           0.720676        2665
 zhegv                                   0.670990       78621
 vhamil                                  0.660623      153818
 pw_charge                               0.658966       25450
 kinhamil                                0.655204      153818
 fftext_mpi                              0.621794      153818
 overl_mu                                0.586309       38487
 orthch                                  0.536815          65
 depsum                                  0.532953          65
 fft3d_mpi                               0.465701      156219
 rpro_isp                                0.421003         364
 choleski                                0.399904        3640
 orth1                                   0.386974       32301
 set_charge                              0.331391          65
 fftwav_mpi                              0.309414      226241
 map_gather                              0.301283        2665
 i3                                      0.292546       32536
 map_scatter                             0.289871        2665
 overl                                   0.227696       26074
 potlok                                  0.183051          67
 m_bcast_z                               0.173161        7967
 lincom                                  0.136570        7504
 fftbas_plan_mpi                         0.128100        2401
 acc_cufft_makeplan                      0.126335          19
 elmin                                   0.119484           1
 rspher_all                              0.106564          14
 m_bcast_d                               0.099138       12041
 broyd                                   0.093236          65
 ggemm                                   0.076682        7351
 proall                                  0.043142           1
 brmix                                   0.036950          65
 w1_projall                              0.036478       37087
 sphpro_fast                             0.035781           2
 i1                                      0.034426       32536
 setg0                                   0.030372          67
 brget                                   0.026959       10197
 map_backward                            0.012676        2526
 truncate_high_frequency_w1              0.012181      156338
 map_forward                             0.012169        2276
 force_and_stress                        0.007699           1
 strnlr                                  0.007050           1
 brsav                                   0.006819        2635
 pothar                                  0.005434          68
 inisym                                  0.004784           1
 fornlr                                  0.002424           1
 stufak                                  0.001922           1
 fft_gq                                  0.001644          65
 fftbrc_mpi                              0.001420        2401
 forhar                                  0.001288           2
 brpre                                   0.001113         130
 strelo                                  0.001091           1
 strehar                                 0.000763           1
 forloc                                  0.000690           1
 shift_bands_between_low_high            0.000427        3584
 fewald                                  0.000331           1
 set_dd_magatom                          0.000286          67
 vectorpot                               0.000278          66
 strkin                                  0.000245           1
 chggra                                  0.000215           1
 brgrid                                  0.000112           1
 rsp                                     0.000048           1
 fordep                                  0.000042           1
 posmap                                  0.000035           2
 crpa_reader                             0.000026           1
 rcp                                     0.000012           1
 acc_cufft_makeplans                     0.000011           3
 potlok_metagga                          0.000003          66
 redis_pw_over_bands                     0.000001           1
 rotate_active_occupied_orbital          0.000000           1
 ---------------------------------------------------------------
  summed up times     236.9149329662323     
 
 Accumulative profile
 ====================
 
             routine name                   CPU           calls
 ---------------------------------------------------------------
 total_time                            236.914933           1
 elmin                                 204.262242           1
 eddrmm                                 93.831517          64
 set_dd_paw                             62.580398          67
 m_sumb_d                               38.396855       30802
 i2                                     32.812906       32536
 i3                                     25.198309       32536
 hamiltmu                               19.440278       38487
 raccmu_                                16.132637       38487
 w1_gemv                                14.717449      459270
 eccp                                   13.533709      177909
 eddav                                  13.288737           5
 cnorma                                 11.556625      143133
 init_acc                               11.340669           1
 densta                                 10.506706          70
 eddiag                                 10.083187          64
 set_charge                              9.126911          65
 eccp_nl                                 7.750813      143133
 setdij_                                 6.879157          93
 phaser                                  6.386510        4228
 newband                                 5.983788       42351
 redis_pw                                5.082142       55295
 fft3d_mpi                               4.958368      156219
 augmentation_charge                     4.746858          66
 force_and_stress                        4.547896           1
 orthch                                  4.407139          65
 fftwav_mpi                              4.195121      226241
 fftwav                                  3.885707      226241
 overl1                                  3.831711      229635
 soft_charge                             3.529555          65
 fftbrc_mpi                              3.462805        2401
 fftbas_plan_mpi                         3.461384        2401
 m_alltoall_d                            2.782356      434651
 fft3d                                   2.724092      380059
 lapack                                  2.664778        5951
 acc_init_cublas                         2.461008           1
 redis_proj                              2.403610       59932
 kinhamil                                2.353496      153818
 w1_dscal                                2.113920      346740
 hamilt_local                            2.030678       32256
 dfftw_execute                           1.996609        1980
 w1_copy                                 1.959269      364686
 w1_gaxpy                                1.894256      355016
 apply_precond                           1.812669      395437
 fftext_mpi                              1.698292      153818
 rpromu_acc                              1.552549       39271
 racc0mu_acc                             1.292291       38487
 w1_projall                              1.259587       37087
 setup_precond                           1.229550       34776
 w1_daxpy                                1.179570      221754
 strnlr                                  1.156151           1
 rpro_isp                                0.946798         364
 w1_dot                                  0.881587       32256
 acc_init_cusolver                       0.801105           1
 map_forward                             0.725569        2276
 m_alltoallv_z                           0.720676        2665
 zhegv                                   0.670990       78621
 vhamil                                  0.660623      153818
 pw_charge                               0.658966       25450
 map_backward                            0.611106        2526
 overl_mu                                0.586309       38487
 potlok                                  0.575362          67
 depsum                                  0.536736          65
 i1                                      0.534636       32536
 fordep                                  0.443874           1
 choleski                                0.399904        3640
 orth1                                   0.386974       32301
 fornlr                                  0.385038           1
 map_gather                              0.301283        2665
 map_scatter                             0.289871        2665
 overl                                   0.227696       26074
 brmix                                   0.209948          65
 m_bcast_z                               0.173161        7967
 broyd                                   0.139194          65
 lincom                                  0.136570        7504
 acc_cufft_makeplans                     0.126346           3
 acc_cufft_makeplan                      0.126335          19
 proall                                  0.115912           1
 rspher_all                              0.106564          14
 m_bcast_d                               0.099138       12041
 ggemm                                   0.076682        7351
 fft_gq                                  0.066327          65
 sphpro_fast                             0.036752           2
 setg0                                   0.030372          67
 brget                                   0.026959       10197
 truncate_high_frequency_w1              0.012181      156338
 brsav                                   0.006819        2635
 pothar                                  0.005985          68
 inisym                                  0.004819           1
 stufak                                  0.001922           1
 forhar                                  0.001302           2
 strelo                                  0.001179           1
 brpre                                   0.001113         130
 strehar                                 0.000836           1
 chggra                                  0.000740           1
 forloc                                  0.000703           1
 fewald                                  0.000447           1
 shift_bands_between_low_high            0.000427        3584
 set_dd_magatom                          0.000286          67
 vectorpot                               0.000278          66
 strkin                                  0.000256           1
 brgrid                                  0.000112           1
 rsp                                     0.000048           1
 posmap                                  0.000035           2
 crpa_reader                             0.000026           1
 rcp                                     0.000012           1
 potlok_metagga                          0.000003          66
 redis_pw_over_bands                     0.000001           1
 rotate_active_occupied_orbital          0.000000           1
 ---------------------------------------------------------------
 
Profiling took   0.638221  0.439494  0.003219  0.003123 seconds
Profiling took   0.535067 seconds
