 vasp.6.3.2 27Jun22 (build Jul  3 2023 11:46:21) complex                         
 executed on    LinuxNV_CrayMPICH date 2024.04.22  03:28:49
 running on    4 total cores
 distrk:  each k-point on    4 cores,    1 groups
 distr:  one band on NCORE=   1 cores,    4 groups


--------------------------------------------------------------------------------------------------------


 INCAR:
   ADDGRID = True
   ALGO = Fast
   EDIFF = 0.0001
   ENCUT = 520.0
   IBRION = -1
   ISIF = 3
   ISMEAR = -5
   ISPIN = 2
   LAECHG = True
   LASPH = True
   LCHARG = True
   LORBIT = 11
   LREAL = Auto
   LVHAR = True
   LWAVE = False
   MAGMOM = 4*0.6 1*7.0 5*0.6
   NELM = 1000
   NSW = 0
   PREC = Accurate
   SIGMA = 0.05

 POTCAR:    PAW_PBE Sm_3 07Sep2000                
 POTCAR:    PAW_PBE Gd 23Dec2003                  
 POTCAR:    PAW_PBE S 06Sep2000                   
 POTCAR:    PAW_PBE Sm_3 07Sep2000                
   SHA256 =  91a28f2e47d9248b0b426598ba2f0c47b5a650c4de6b6d4d265fd2ea27a92672 Sm_3/POTCAR           
   COPYR  = (c) Copyright 07Sep2000 Georg Kresse                                                    
   COPYR  = This file is part of the software VASP. Any use, copying, and all other rights are regul
   COPYR  = If you do not have a valid VASP license, you may not use, copy or distribute this file. 
   VRHFIN =Sm : [core=Xe4]                                                                          
   LEXCH  = PE                                                                                      
   EATOM  =   974.5430 eV,   71.6269 Ry                                                             
                                                                                                    
   TITEL  = PAW_PBE Sm_3 07Sep2000                                                                  
   LULTRA =        F    use ultrasoft PP ?                                                          
   IUNSCR =        1    unscreen: 0-lin 1-nonlin 2-no                                               
   RPACOR =    2.400    partial core radius                                                         
   POMASS =  150.360; ZVAL   =   11.000    mass and valenz                                          
   RCORE  =    2.850    outmost cutoff radius                                                       
   RWIGS  =    3.000; RWIGS  =    1.588    wigner-seitz radius (au A)                               
   ENMAX  =  177.087; ENMIN  =  132.815 eV                                                          
   RCLOC  =    2.413    cutoff for local pot                                                        
   LCOR   =        T    correct aug charges                                                         
   LPAW   =        T    paw PP                                                                      
   EAUG   =  290.851                                                                                
   DEXC   =    0.000                                                                                
   RMAX   =    2.906    core radius for proj-oper                                                   
   RAUG   =    1.300    factor for augmentation sphere                                              
   RDEP   =    2.877    radius for radial grids                                                     
   RDEPT  =    2.409    core radius for aug-charge                                                  
                                                                                                    
   Atomic configuration                                                                             
   14 entries                                                                                       
     n  l   j            E        occ.                                                              
     1  0  0.50    -46670.6560   2.0000                                                             
     2  0  0.50     -7631.3386   2.0000                                                             
     2  1  1.50     -6806.8823   6.0000                                                             
     3  0  0.50     -1678.0927   2.0000                                                             
     3  1  1.50     -1420.5090   6.0000                                                             
     3  2  2.50     -1072.1648  10.0000                                                             
     4  0  0.50      -339.0540   2.0000                                                             
     4  1  1.50      -254.2842   6.0000                                                             
     4  2  2.50      -135.4007  10.0000                                                             
     4  3  2.50        -7.9771   5.0000                                                             
     5  0  0.50       -46.7041   2.0000                                                             
     6  0  0.50        -3.9944   2.0000                                                             
     5  1  1.50       -25.9874   6.0000                                                             
     5  2  2.50        -2.7417   1.0000                                                             
   Description                                                                                      
     l       E           TYP  RCUT    TYP  RCUT                                                     
     0    -46.7041374     23  2.850                                                                 
     0     -3.9944046     23  2.850                                                                 
     1    -25.9874173     23  2.800                                                                 
     1     13.6058260     23  2.800                                                                 
     2     -2.7417030     23  2.800                                                                 
     2      0.1707941     23  2.800                                                                 
  local pseudopotential read in
  partial core-charges read in
  partial kinetic energy density read in
  atomic valenz-charges read in
  non local Contribution for L=            0  read in
    real space projection operators read in
  non local Contribution for L=            0  read in
    real space projection operators read in
  non local Contribution for L=            1  read in
    real space projection operators read in
  non local Contribution for L=            1  read in
    real space projection operators read in
  non local Contribution for L=            2  read in
    real space projection operators read in
  non local Contribution for L=            2  read in
    real space projection operators read in
    PAW grid and wavefunctions read in
 
   number of l-projection  operators is LMAX  =            6
   number of lm-projection operators is LMMAX =           18
 
 POTCAR:    PAW_PBE Gd 23Dec2003                  
   SHA256 =  58854b40b4643190560b0e2b62d2ab46bea96585f82c6231a0f4f44b8c3188dc Gd/POTCAR             
   COPYR  = (c) Copyright 23Dec2003 Georg Kresse                                                    
   COPYR  = This file is part of the software VASP. Any use, copying, and all other rights are regul
   COPYR  = If you do not have a valid VASP license, you may not use, copy or distribute this file. 
   VRHFIN =Gd : [core=Xe4]                                                                          
   LEXCH  = PE                                                                                      
   EATOM  =  3047.6032 eV,  223.9925 Ry                                                             
                                                                                                    
   TITEL  = PAW_PBE Gd 23Dec2003                                                                    
   LULTRA =        F    use ultrasoft PP ?                                                          
   IUNSCR =        1    unscreen: 0-lin 1-nonlin 2-no                                               
   RPACOR =    2.300    partial core radius                                                         
   POMASS =  157.250; ZVAL   =   18.000    mass and valenz                                          
   RCORE  =    2.800    outmost cutoff radius                                                       
   RWIGS  =    2.800; RWIGS  =    1.482    wigner-seitz radius (au A)                               
   ENMAX  =  256.472; ENMIN  =  192.354 eV                                                          
   RCLOC  =    2.316    cutoff for local pot                                                        
   LCOR   =        T    correct aug charges                                                         
   LPAW   =        T    paw PP                                                                      
   EAUG   =  537.243                                                                                
   DEXC   =    0.000                                                                                
   RMAX   =    2.857    core radius for proj-oper                                                   
   RAUG   =    1.300    factor for augmentation sphere                                              
   RDEP   =    2.921    radius for radial grids                                                     
   RDEPT  =    2.247    core radius for aug-charge                                                  
                                                                                                    
   Atomic configuration                                                                             
   14 entries                                                                                       
     n  l   j            E        occ.                                                              
     1  0  0.50    -50087.2354   2.0000                                                             
     2  0  0.50     -8269.2182   2.0000                                                             
     2  1  1.50     -7357.3672   6.0000                                                             
     3  0  0.50     -1833.2681   2.0000                                                             
     3  1  1.50     -1550.9376   6.0000                                                             
     3  2  2.50     -1178.7204  10.0000                                                             
     4  0  0.50      -369.2978   2.0000                                                             
     4  1  1.50      -276.2601   6.0000                                                             
     4  2  2.50      -147.6611  10.0000                                                             
     5  0  0.50       -49.7260   2.0000                                                             
     6  0  0.50        -4.1254   2.0000                                                             
     5  1  1.50       -27.2538   6.0000                                                             
     5  2  2.50        -2.5337   1.0000                                                             
     4  3  2.50        -8.7140   7.0000                                                             
   Description                                                                                      
     l       E           TYP  RCUT    TYP  RCUT                                                     
     0    -49.7259557     23  2.400                                                                 
     0     -4.1254107     23  2.400                                                                 
     1    -27.2537518     23  2.400                                                                 
     1     20.4087390     23  2.400                                                                 
     2     -2.5337329     23  2.500                                                                 
     2     13.6058260     23  2.500                                                                 
     3     -8.7140389     23  2.800                                                                 
     3     -9.5240782     23  2.800                                                                 
  local pseudopotential read in
  partial core-charges read in
  partial kinetic energy density read in
  atomic valenz-charges read in
  non local Contribution for L=            0  read in
    real space projection operators read in
  non local Contribution for L=            0  read in
    real space projection operators read in
  non local Contribution for L=            1  read in
    real space projection operators read in
  non local Contribution for L=            1  read in
    real space projection operators read in
  non local Contribution for L=            2  read in
    real space projection operators read in
  non local Contribution for L=            2  read in
    real space projection operators read in
  non local Contribution for L=            3  read in
    real space projection operators read in
  non local Contribution for L=            3  read in
    real space projection operators read in
    PAW grid and wavefunctions read in
 
   number of l-projection  operators is LMAX  =            8
   number of lm-projection operators is LMMAX =           32
 
 POTCAR:    PAW_PBE S 06Sep2000                   
   SHA256 =  0fc7481fb0695f01bdc6462160264c5c84044ae9ec85a907d398b887a2bc3132 S/POTCAR              
   COPYR  = (c) Copyright 06Sep2000 Georg Kresse                                                    
   COPYR  = This file is part of the software VASP. Any use, copying, and all other rights are regul
   COPYR  = If you do not have a valid VASP license, you may not use, copy or distribute this file. 
   VRHFIN =S : s2p4                                                                                 
   LEXCH  = PE                                                                                      
   EATOM  =   276.8230 eV,   20.3459 Ry                                                             
                                                                                                    
   TITEL  = PAW_PBE S 06Sep2000                                                                     
   LULTRA =        F    use ultrasoft PP ?                                                          
   IUNSCR =        1    unscreen: 0-lin 1-nonlin 2-no                                               
   RPACOR =    1.500    partial core radius                                                         
   POMASS =   32.066; ZVAL   =    6.000    mass and valenz                                          
   RCORE  =    1.900    outmost cutoff radius                                                       
   RWIGS  =    2.200; RWIGS  =    1.164    wigner-seitz radius (au A)                               
   ENMAX  =  258.689; ENMIN  =  194.016 eV                                                          
   ICORE  =        2    local potential                                                             
   LCOR   =        T    correct aug charges                                                         
   LPAW   =        T    paw PP                                                                      
   EAUG   =  335.092                                                                                
   DEXC   =    0.000                                                                                
   RMAX   =    1.942    core radius for proj-oper                                                   
   RAUG   =    1.300    factor for augmentation sphere                                              
   RDEP   =    1.954    radius for radial grids                                                     
   RDEPT  =    1.744    core radius for aug-charge                                                  
                                                                                                    
   Atomic configuration                                                                             
    6 entries                                                                                       
     n  l   j            E        occ.                                                              
     1  0  0.50     -2405.8406   2.0000                                                             
     2  0  0.50      -211.7007   2.0000                                                             
     2  1  1.50      -156.4958   6.0000                                                             
     3  0  0.50       -17.2562   2.0000                                                             
     3  1  0.50        -7.0085   4.0000                                                             
     3  2  1.50        -6.8029   0.0000                                                             
   Description                                                                                      
     l       E           TYP  RCUT    TYP  RCUT                                                     
     0    -17.2561641     23  1.900                                                                 
     0    -15.8743224     23  1.900                                                                 
     1     -7.0085400     23  1.900                                                                 
     1     -2.7779785     23  1.900                                                                 
     2     -6.8029130     23  1.900                                                                 
  local pseudopotential read in
  partial core-charges read in
  partial kinetic energy density read in
  atomic valenz-charges read in
  non local Contribution for L=            0  read in
    real space projection operators read in
  non local Contribution for L=            0  read in
    real space projection operators read in
  non local Contribution for L=            1  read in
    real space projection operators read in
  non local Contribution for L=            1  read in
    real space projection operators read in
    PAW grid and wavefunctions read in
 
   number of l-projection  operators is LMAX  =            4
   number of lm-projection operators is LMMAX =            8
 
 Optimization of the real space projectors (new method)

 maximal supplied QI-value         = 13.23
 optimisation between [QCUT,QGAM] = [ 11.64, 23.28] = [ 37.95,151.78] Ry 
 Optimized for a Real-space Cutoff    1.73 Angstroem

   l    n(q)    QCUT    max X(q) W(low)/X(q) W(high)/X(q)  e(spline) 
   0     12    11.641     6.970    0.78E-05    0.65E-05    0.89E-07
   0     12    11.641    24.042    0.34E-04    0.17E-04    0.22E-06
   1     12    11.641     4.424    0.60E-05    0.14E-05    0.11E-06
   1     12    11.641     4.788    0.21E-04    0.27E-04    0.77E-06
   2     11    11.641    33.680    0.13E-03    0.27E-03    0.15E-05
   2     11    11.641    27.971    0.12E-03    0.25E-03    0.14E-05
 Optimization of the real space projectors (new method)

 maximal supplied QI-value         = 13.42
 optimisation between [QCUT,QGAM] = [ 11.67, 23.35] = [ 38.16,152.62] Ry 
 Optimized for a Real-space Cutoff    1.63 Angstroem

   l    n(q)    QCUT    max X(q) W(low)/X(q) W(high)/X(q)  e(spline) 
   0     11    11.673    10.501    0.14E-04    0.17E-05    0.21E-07
   0     11    11.673     9.148    0.21E-04    0.32E-05    0.45E-07
   1     11    11.673     4.035    0.33E-05    0.11E-04    0.84E-07
   1     11    11.673     4.388    0.11E-04    0.47E-04    0.34E-06
   2     10    11.673    20.656    0.12E-04    0.28E-04    0.54E-06
   2     10    11.673    12.651    0.11E-04    0.26E-04    0.51E-06
   3     10    11.673    61.921    0.19E-03    0.22E-03    0.23E-06
   3     10    11.673    48.328    0.20E-03    0.23E-03    0.23E-06
 Optimization of the real space projectors (new method)

 maximal supplied QI-value         = 19.84
 optimisation between [QCUT,QGAM] = [ 11.51, 23.22] = [ 37.09,150.92] Ry 
 Optimized for a Real-space Cutoff    1.21 Angstroem

   l    n(q)    QCUT    max X(q) W(low)/X(q) W(high)/X(q)  e(spline) 
   0      8    11.508   187.594    0.96E-04    0.18E-03    0.54E-07
   0      8    11.508   164.243    0.96E-04    0.18E-03    0.54E-07
   1      8    11.508    67.533    0.18E-03    0.65E-04    0.94E-07
   1      8    11.508    50.729    0.18E-03    0.63E-04    0.92E-07
  PAW_PBE Sm_3 07Sep2000                :
 energy of atom  1       EATOM= -974.5430
 kinetic energy error for atom=    0.0004 (will be added to EATOM!!)
  PAW_PBE Gd 23Dec2003                  :
 energy of atom  2       EATOM=-3047.6032
 kinetic energy error for atom=    0.0019 (will be added to EATOM!!)
  PAW_PBE S 06Sep2000                   :
 energy of atom  3       EATOM= -276.8230
 kinetic energy error for atom=    0.0016 (will be added to EATOM!!)
 
 
 POSCAR: Sm4 Gd1 S5
  positions in direct lattice
  No initial velocities read in
 exchange correlation table for  LEXCH =        8
   RHO(1)=    0.500       N(1)  =     2000
   RHO(2)=  100.500       N(2)  =     4000

 VTST: version 4.2, (08/11/21)

 CHAIN: initializing optimizer
 
 OPT: Using VASP Dynamics algorithm
 CHAIN: Read ICHAIN             0
 
 POSCAR: Sm4 Gd1 S5
  positions in direct lattice
  No initial velocities read in
 


--------------------------------------------------------------------------------------------------------


 ion  position               nearest neighbor table
   1  0.601  0.601  0.000-  10 2.87  10 2.87   7 2.91   7 2.91   9 2.93   9 2.93
   2  0.200  0.200  0.000-   7 2.87   7 2.87   8 2.92   8 2.92  10 2.96  10 2.96
   3  0.800  0.800  0.000-   8 2.87   8 2.87   7 2.92   7 2.92   6 2.96   6 2.96
   4  0.399  0.399  0.000-   6 2.87   6 2.87   8 2.91   8 2.91   9 2.93   9 2.93
   5  0.000  0.000  0.000-   9 2.87   9 2.87  10 2.88  10 2.88   6 2.88   6 2.88
   6  0.903  0.403  0.500-   4 2.87   4 2.87   5 2.88   5 2.88   3 2.96   3 2.96
   7  0.700  0.200  0.500-   2 2.87   2 2.87   1 2.91   1 2.91   3 2.92   3 2.92
   8  0.300  0.800  0.500-   3 2.87   3 2.87   4 2.91   4 2.91   2 2.92   2 2.92
   9  0.500  0.000  0.500-   5 2.87   5 2.87   1 2.93   1 2.93   4 2.93   4 2.93
  10  0.097  0.597  0.500-   1 2.87   1 2.87   5 2.88   5 2.88   2 2.96   2 2.96
 
  LATTYP: Found a body centered orthorhombic cell.
 ALAT       =     4.1612740000
 B/A-ratio  =     1.3806877413
 C/A-ratio  =     4.9251532103
  
  Lattice vectors:
  
 A1 = (  -2.0806370000,   2.8727100000,  10.2474560000)
 A2 = (   2.0806370000,  -2.8727100000,  10.2474560000)
 A3 = (   2.0806370000,   2.8727100000, -10.2474560000)


Analysis of symmetry for initial positions (statically):
=====================================================================
 Subroutine PRICEL returns:
 Original cell was already a primitive cell.
 

 Routine SETGRP: Setting up the symmetry group for a 
 body centered orthorhombic supercell.


 Subroutine GETGRP returns: Found  8 space group operations
 (whereof  8 operations were pure point group operations)
 out of a pool of  8 trial point group operations.


The static configuration has the point symmetry D_2h.


Analysis of symmetry for dynamics (positions and initial velocities):
=====================================================================
 Subroutine PRICEL returns:
 Original cell was already a primitive cell.
 

 Routine SETGRP: Setting up the symmetry group for a 
 body centered orthorhombic supercell.


 Subroutine GETGRP returns: Found  8 space group operations
 (whereof  8 operations were pure point group operations)
 out of a pool of  8 trial point group operations.


The dynamic configuration has the point symmetry D_2h.


Analysis of structural, dynamic, and magnetic symmetry:
=====================================================================
 Subroutine PRICEL returns:
 Original cell was already a primitive cell.
 

 Routine SETGRP: Setting up the symmetry group for a 
 body centered orthorhombic supercell.


 Subroutine GETGRP returns: Found  8 space group operations
 (whereof  8 operations were pure point group operations)
 out of a pool of  8 trial point group operations.


The overall configuration has the point symmetry D_2h.


 Subroutine INISYM returns: Found  8 space group operations
 (whereof  8 operations are pure point group operations),
 and found     1 'primitive' translations


----------------------------------------------------------------------------------------

                                     Primitive cell                                     

  volume of cell :     244.9989

  direct lattice vectors                    reciprocal lattice vectors
    -2.080637000  2.872710000 10.247456000    -0.000000000  0.174051679  0.048792598
     2.080637000 -2.872710000 10.247456000     0.240311020  0.000000000  0.048792598
     2.080637000  2.872710000-10.247456000     0.240311020  0.174051679  0.000000000

  length of vectors
    10.843978400 10.843978400 10.843978400     0.180761458  0.245214404  0.296721037

  position of ions in fractional coordinates (direct lattice)
     0.600585000  0.600585000  0.000000000
     0.199707000  0.199707000  0.000000000
     0.800293000  0.800293000  0.000000000
     0.399415000  0.399415000  0.000000000
     0.000000000  0.000000000  0.000000000
     0.902836000  0.402836000  0.500000000
     0.700050000  0.200050000  0.500000000
     0.299950000  0.799950000  0.500000000
     0.500000000  0.000000000  0.500000000
     0.097164000  0.597164000  0.500000000

  ion indices of the primitive-cell ions
   primitive index   ion index
                 1           1
                 2           2
                 3           3
                 4           4
                 5           5
                 6           6
                 7           7
                 8           8
                 9           9
                10          10

----------------------------------------------------------------------------------------

 
 
 KPOINTS: Kpoints from vasprun.xml                

Automatic generation of k-mesh.
 Grid dimensions read from file:
 generate k-points for:    4    4    4

 Generating k-lattice:

  Cartesian coordinates                     Fractional coordinates (reciprocal lattice)
    -0.000000000  0.043512920  0.012198149     0.250000000  0.000000000 -0.000000000
     0.060077755  0.000000000  0.012198149     0.000000000  0.250000000 -0.000000000
     0.060077755  0.043512920  0.000000000     0.000000000 -0.000000000  0.250000000

  Length of vectors
     0.045190365  0.061303601  0.074180259

  Shift w.r.t. Gamma in fractional coordinates (k-lattice)
     0.500000000  0.500000000  0.500000000

 TETIRR: Found    155 inequivalent tetrahedra from      384
 
 Subroutine IBZKPT returns following result:
 ===========================================
 
 Found     17 irreducible k-points:
 
 Following reciprocal coordinates:
            Coordinates               Weight
  0.125000  0.125000  0.125000      8.000000
  0.375000  0.125000  0.125000      4.000000
 -0.125000  0.125000  0.125000      2.000000
  0.125000  0.375000  0.125000      4.000000
  0.375000  0.375000  0.125000      4.000000
 -0.375000  0.375000  0.125000      4.000000
 -0.125000  0.375000  0.125000      4.000000
  0.375000 -0.375000  0.125000      4.000000
 -0.375000 -0.375000  0.125000      8.000000
 -0.125000 -0.375000  0.125000      4.000000
  0.125000 -0.125000  0.125000      2.000000
  0.375000 -0.125000  0.125000      4.000000
 -0.375000 -0.125000  0.125000      4.000000
 -0.125000 -0.125000  0.125000      2.000000
 -0.375000  0.375000  0.375000      2.000000
  0.375000 -0.375000  0.375000      2.000000
 -0.375000 -0.375000  0.375000      2.000000
 
 Following cartesian coordinates:
            Coordinates               Weight
  0.060078  0.043513  0.012198      8.000000
  0.060078  0.087026  0.024396      4.000000
  0.060078  0.000000  0.000000      2.000000
  0.120156  0.043513  0.024396      4.000000
  0.120156  0.087026  0.036594      4.000000
  0.120156 -0.043513  0.000000      4.000000
  0.120156  0.000000  0.012198      4.000000
 -0.060078  0.087026  0.000000      4.000000
 -0.060078 -0.043513 -0.036594      8.000000
 -0.060078  0.000000 -0.024396      4.000000
  0.000000  0.043513  0.000000      2.000000
  0.000000  0.087026  0.012198      4.000000
  0.000000 -0.043513 -0.024396      4.000000
  0.000000  0.000000 -0.012198      2.000000
  0.180233  0.000000  0.000000      2.000000
  0.000000  0.130539  0.000000      2.000000
  0.000000  0.000000 -0.036594      2.000000
 


--------------------------------------------------------------------------------------------------------




 Dimension of arrays:
   k-points           NKPTS =     17   k-points in BZ     NKDIM =     17   number of bands    NBANDS=     64
   number of dos      NEDOS =    301   number of ions     NIONS =     10
   non local maximal  LDIM  =      8   non local SUM 2l+1 LMDIM =     32
   total plane-waves  NPLWV = 592704
   max r-space proj   IRMAX =  52184   max aug-charges    IRDMAX= ******
   dimension x,y,z NGX =    84 NGY =   84 NGZ =   84
   dimension x,y,z NGXF=   168 NGYF=  168 NGZF=  168
   support grid    NGXF=   336 NGYF=  336 NGZF=  336
   ions per type =               4   1   5
   NGX,Y,Z   is equivalent  to a cutoff of  12.88, 12.88, 12.88 a.u.
   NGXF,Y,Z  is equivalent  to a cutoff of  25.76, 25.76, 25.76 a.u.

 SYSTEM =  unknown system                          
 POSCAR =  Sm4 Gd1 S5                              

 Startparameter for this run:
   NWRITE =      2    write-flag & timer
   PREC   = accura    normal or accurate (medium, high low for compatibility)
   ISTART =      0    job   : 0-new  1-cont  2-samecut
   ICHARG =      2    charge: 1-file 2-atom 10-const
   ISPIN  =      2    spin polarized calculation?
   LNONCOLLINEAR =      F non collinear calculations
   LSORBIT =      F    spin-orbit coupling
   INIWAV =      1    electr: 0-lowe 1-rand  2-diag
   LASPH  =      T    aspherical Exc in radial PAW
 Electronic Relaxation 1
   ENCUT  =  520.0 eV  38.22 Ry    6.18 a.u.  20.16 20.16 20.16*2*pi/ulx,y,z
   ENINI  =  520.0     initial cutoff
   ENAUG  =  537.2 eV  augmentation charge cutoff
   NELM   =   1000;   NELMIN=  2; NELMDL= -5     # of ELM steps 
   EDIFF  = 0.1E-03   stopping-criterion for ELM
   LREAL  =      T    real-space projection
   NLSPLINE    = F    spline interpolate recip. space projectors
   LCOMPAT=      F    compatible to vasp.4.4
   GGA_COMPAT  = T    GGA compatible to vasp.4.4-vasp.4.6
   LMAXPAW     = -100 max onsite density
   LMAXMIX     =    2 max onsite mixed and CHGCAR
   VOSKOWN=      0    Vosko Wilk Nusair interpolation
   ROPT   =   -0.00025  -0.00025  -0.00025
 Ionic relaxation
   EDIFFG = 0.1E-02   stopping-criterion for IOM
   NSW    =      0    number of steps for IOM
   NBLOCK =      1;   KBLOCK =      1    inner block; outer block 
   IBRION =     -1    ionic relax: 0-MD 1-quasi-New 2-CG
   NFREE  =      0    steps in history (QN), initial steepest desc. (CG)
   ISIF   =      3    stress and relaxation
   IWAVPR =     10    prediction:  0-non 1-charg 2-wave 3-comb
   ISYM   =      2    0-nonsym 1-usesym 2-fastsym
   LCORR  =      T    Harris-Foulkes like correction to forces

   POTIM  = 0.5000    time-step for ionic-motion
   TEIN   =    0.0    initial temperature
   TEBEG  =    0.0;   TEEND  =   0.0 temperature during run
   SMASS  =  -3.00    Nose mass-parameter (am)
   estimated Nose-frequenzy (Omega)   =  0.10E-29 period in steps = 0.13E+47 mass=  -0.269E-26a.u.
   SCALEE = 1.0000    scale energy and forces
   NPACO  =    256;   APACO  = 10.0  distance and # of slots for P.C.
   PSTRESS=    0.0 pullay stress

  Mass of Ions in am
   POMASS = 150.36157.25 32.07
  Ionic Valenz
   ZVAL   =  11.00 18.00  6.00
  Atomic Wigner-Seitz radii
   RWIGS  =  -1.00 -1.00 -1.00
  virtual crystal weights 
   VCA    =   1.00  1.00  1.00
   NELECT =      92.0000    total number of electrons
   NUPDOWN=      -1.0000    fix difference up-down

 DOS related values:
   EMIN   =  10.00;   EMAX   =-10.00  energy-range for DOS
   EFERMI =   0.00
   ISMEAR =    -5;   SIGMA  =   0.05  broadening in eV -4-tet -1-fermi 0-gaus

 Electronic relaxation 2 (details)
   IALGO  =     68    algorithm
   LDIAG  =      T    sub-space diagonalisation (order eigenvalues)
   LSUBROT=      F    optimize rotation matrix (better conditioning)
   TURBO    =      0    0=normal 1=particle mesh
   IRESTART =      0    0=no restart 2=restart with 2 vectors
   NREBOOT  =      0    no. of reboots
   NMIN     =      0    reboot dimension
   EREF     =   0.00    reference energy to select bands
   IMIX   =      4    mixing-type and parameters
     AMIX     =   0.40;   BMIX     =  1.00
     AMIX_MAG =   1.60;   BMIX_MAG =  1.00
     AMIN     =   0.10
     WC   =   100.;   INIMIX=   1;  MIXPRE=   1;  MAXMIX= -45

 Intra band minimization:
   WEIMIN = 0.0000     energy-eigenvalue tresh-hold
   EBREAK =  0.39E-06  absolut break condition
   DEPER  =   0.30     relativ break condition  

   TIME   =   0.40     timestep for ELM

  volume/ion in A,a.u.               =      24.50       165.33
  Fermi-wavevector in a.u.,A,eV,Ry     =   1.181089  2.231935 18.979744  1.394972
  Thomas-Fermi vector in A             =   2.317369
 
 Write flags
   LWAVE        =      F    write WAVECAR
   LDOWNSAMPLE  =      F    k-point downsampling of WAVECAR
   LCHARG       =      T    write CHGCAR
   LVTOT        =      F    write LOCPOT, total local potential
   LVHAR        =      T    write LOCPOT, Hartree potential only
   LELF         =      F    write electronic localiz. function (ELF)
   LORBIT       =     11    0 simple, 1 ext, 2 COOP (PROOUT), +10 PAW based schemes


 Dipole corrections
   LMONO  =      F    monopole corrections only (constant potential shift)
   LDIPOL =      F    correct potential (dipole corrections)
   IDIPOL =      0    1-x, 2-y, 3-z, 4-all directions 
   EPSILON=  1.0000000 bulk dielectric constant

 Exchange correlation treatment:
   GGA     =    --    GGA type
   LEXCH   =     8    internal setting for exchange type
   LIBXC   =     F    Libxc                    
   VOSKOWN =     0    Vosko Wilk Nusair interpolation
   LHFCALC =     F    Hartree Fock is set to
   LHFONE  =     F    Hartree Fock one center treatment
   AEXX    =    0.0000 exact exchange contribution

 Linear response parameters
   LEPSILON=     F    determine dielectric tensor
   LRPA    =     F    only Hartree local field effects (RPA)
   LNABLA  =     F    use nabla operator in PAW spheres
   LVEL    =     F    velocity operator in full k-point grid
   CSHIFT  =0.1000    complex shift for real part using Kramers Kronig
   OMEGAMAX=  -1.0    maximum frequency
   DEG_THRESHOLD= 0.2000000E-02 threshold for treating states as degnerate
   RTIME   =   -0.100 relaxation time in fs
  (WPLASMAI=    0.000 imaginary part of plasma frequency in eV, 0.658/RTIME)
   DFIELD  = 0.0000000 0.0000000 0.0000000 field for delta impulse in time
 
  Optional k-point grid parameters
   LKPOINTS_OPT  =     F    use optional k-point grid
   KPOINTS_OPT_MODE=     1    mode for optional k-point grid
 
 Orbital magnetization related:
   ORBITALMAG=     F  switch on orbital magnetization
   LCHIMAG   =     F  perturbation theory with respect to B field
   DQ        =  0.001000  dq finite difference perturbation B field
   LLRAUG    =     F  two centre corrections for induced B field



--------------------------------------------------------------------------------------------------------


 Static calculation
 charge density and potential will be updated during run
 spin polarized calculation
 RMM-DIIS sequential band-by-band and
  variant of blocked Davidson during initial phase
 perform sub-space diagonalisation
    before iterative eigenvector-optimisation
 modified Broyden-mixing scheme, WC =      100.0
 initial mixing is a Kerker type mixing with AMIX =  0.4000 and BMIX =      1.0000
 Hartree-type preconditioning will be used
 using additional bands            18
 real space projection scheme for non local part
 use partial core corrections
 calculate Harris-corrections to forces 
   (improved forces if not selfconsistent)
 use gradient corrections 
 use of overlap-Matrix (Vanderbilt PP)
 Fermi weights with tetrahedron method with Bloechl corrections


--------------------------------------------------------------------------------------------------------


  energy-cutoff  :      520.00
  volume of cell :      245.00
      direct lattice vectors                 reciprocal lattice vectors
    -2.080637000  2.872710000 10.247456000    -0.000000000  0.174051679  0.048792598
     2.080637000 -2.872710000 10.247456000     0.240311020  0.000000000  0.048792598
     2.080637000  2.872710000-10.247456000     0.240311020  0.174051679  0.000000000

  length of vectors
    10.843978400 10.843978400 10.843978400     0.180761458  0.245214404  0.296721037


 
 k-points in units of 2pi/SCALE and weight: Kpoints from vasprun.xml                
   0.06007776  0.04351292  0.01219815       0.125
   0.06007776  0.08702584  0.02439630       0.063
   0.06007776  0.00000000  0.00000000       0.031
   0.12015551  0.04351292  0.02439630       0.063
   0.12015551  0.08702584  0.03659445       0.063
   0.12015551 -0.04351292  0.00000000       0.063
   0.12015551  0.00000000  0.01219815       0.063
  -0.06007776  0.08702584  0.00000000       0.063
  -0.06007776 -0.04351292 -0.03659445       0.125
  -0.06007776  0.00000000 -0.02439630       0.063
   0.00000000  0.04351292  0.00000000       0.031
   0.00000000  0.08702584  0.01219815       0.063
   0.00000000 -0.04351292 -0.02439630       0.063
   0.00000000  0.00000000 -0.01219815       0.031
   0.18023327  0.00000000  0.00000000       0.031
   0.00000000  0.13053876  0.00000000       0.031
   0.00000000  0.00000000 -0.03659445       0.031
 
 k-points in reciprocal lattice and weights: Kpoints from vasprun.xml                
   0.12500000  0.12500000  0.12500000       0.125
   0.37500000  0.12500000  0.12500000       0.063
  -0.12500000  0.12500000  0.12500000       0.031
   0.12500000  0.37500000  0.12500000       0.063
   0.37500000  0.37500000  0.12500000       0.063
  -0.37500000  0.37500000  0.12500000       0.063
  -0.12500000  0.37500000  0.12500000       0.063
   0.37500000 -0.37500000  0.12500000       0.063
  -0.37500000 -0.37500000  0.12500000       0.125
  -0.12500000 -0.37500000  0.12500000       0.063
   0.12500000 -0.12500000  0.12500000       0.031
   0.37500000 -0.12500000  0.12500000       0.063
  -0.37500000 -0.12500000  0.12500000       0.063
  -0.12500000 -0.12500000  0.12500000       0.031
  -0.37500000  0.37500000  0.37500000       0.031
   0.37500000 -0.37500000  0.37500000       0.031
  -0.37500000 -0.37500000  0.37500000       0.031
 
 position of ions in fractional coordinates (direct lattice) 
   0.60058500  0.60058500  0.00000000
   0.19970700  0.19970700  0.00000000
   0.80029300  0.80029300  0.00000000
   0.39941500  0.39941500  0.00000000
   0.00000000  0.00000000  0.00000000
   0.90283600  0.40283600  0.50000000
   0.70005000  0.20005000  0.50000000
   0.29995000  0.79995000  0.50000000
   0.50000000  0.00000000  0.50000000
   0.09716400  0.59716400  0.50000000
 
 position of ions in cartesian coordinates  (Angst):
   0.00000000 -0.00000000 12.30893672
  -0.00000000  0.00000000  4.09297739
   0.00000000  0.00000000 16.40193461
   0.00000000  0.00000000  8.18597528
   0.00000000  0.00000000  0.00000000
   0.00000000  2.87271000  8.25608837
   0.00000000  2.87271000  4.10000715
   2.08063700  0.00000000  6.14744885
   0.00000000  2.87271000  0.00000000
   2.08063700  0.00000000  1.99136763
 


--------------------------------------------------------------------------------------------------------


 k-point   1 :   0.1250 0.1250 0.1250  plane waves:    6591
 k-point   2 :   0.3750 0.1250 0.1250  plane waves:    6592
 k-point   3 :  -0.1250 0.1250 0.1250  plane waves:    6589
 k-point   4 :   0.1250 0.3750 0.1250  plane waves:    6604
 k-point   5 :   0.3750 0.3750 0.1250  plane waves:    6600
 k-point   6 :  -0.3750 0.3750 0.1250  plane waves:    6598
 k-point   7 :  -0.1250 0.3750 0.1250  plane waves:    6607
 k-point   8 :   0.3750-0.3750 0.1250  plane waves:    6583
 k-point   9 :  -0.3750-0.3750 0.1250  plane waves:    6585
 k-point  10 :  -0.1250-0.3750 0.1250  plane waves:    6592
 k-point  11 :   0.1250-0.1250 0.1250  plane waves:    6603
 k-point  12 :   0.3750-0.1250 0.1250  plane waves:    6602
 k-point  13 :  -0.3750-0.1250 0.1250  plane waves:    6609
 k-point  14 :  -0.1250-0.1250 0.1250  plane waves:    6606
 k-point  15 :  -0.3750 0.3750 0.3750  plane waves:    6598
 k-point  16 :   0.3750-0.3750 0.3750  plane waves:    6586
 k-point  17 :  -0.3750-0.3750 0.3750  plane waves:    6620

 maximum and minimum number of plane-waves per node :      6620     6583

 maximum number of plane-waves:      6620
 maximum index in each direction: 
   IXMAX=   20   IYMAX=   20   IZMAX=   20
   IXMIN=  -20   IYMIN=  -20   IZMIN=  -20


 serial   3D FFT for wavefunctions
 parallel 3D FFT for charge:
    minimum data exchange during FFTs selected (reduces bandwidth)


 total amount of memory used by VASP MPI-rank0   477909. kBytes
=======================================================================

   base      :      30000. kBytes
   nonlr-proj:      59010. kBytes
   fftplans  :     176069. kBytes
   grid      :     152974. kBytes
   one-center:        983. kBytes
   wavefun   :      58873. kBytes
 
     INWAV:  cpu time      0.0001: real time      0.0006
 Broyden mixing: mesh for mixing (old mesh)
   NGX = 41   NGY = 41   NGZ = 41
  (NGX  =168   NGY  =168   NGZ  =168)
  gives a total of  68921 points

 initial charge density was supplied:
 charge density of overlapping atoms calculated
 number of electron      92.0000000 magnetization      12.4000000
 keeping initial charge density in first step


--------------------------------------------------------------------------------------------------------


 Maximum index for non-local projection operator         50582
 Maximum index for augmentation-charges        389877 (set IRDMAX)


--------------------------------------------------------------------------------------------------------


 First call to EWALD:  gamma=   0.283
 Maximum number of real-space cells 3x 4x 5
 Maximum number of reciprocal cells 4x 4x 4

    FEWALD:  cpu time      0.0008: real time      0.0008


--------------------------------------- Iteration      1(   1)  ---------------------------------------


    POTLOK:  cpu time      0.1464: real time      0.1771
    SETDIJ:  cpu time      2.3686: real time      2.3694
     EDDAV:  cpu time      5.1496: real time      5.1559
 BZINTS: Fermi energy:   14.959014;   92.000000 electrons
         Band energy: 0.163653E+02;  BLOECHL correction:   -0.849496
       DOS:  cpu time      0.1126: real time      0.1126
    --------------------------------------------
      LOOP:  cpu time      7.7772: real time      7.8151

 eigenvalue-minimisations  :  6088
 total energy-change (2. order) : 0.8450073E+03  (-0.4063753E+04)
 number of electron      92.0000000 magnetization      12.4000000
 augmentation part       92.0000000 magnetization      12.4000000

 Free energy of the ion-electron system (eV)
  ---------------------------------------------------
  alpha Z        PSCENC =       535.38465626
  Ewald energy   TEWEN  =     -6448.33158182
  -Hartree energ DENC   =     -1730.89632928
  -exchange      EXHF   =         0.00000000
  -V(xc)+E(xc)   XCENC  =       251.97448433
  PAW double counting   =      6529.60271450    -6638.97051180
  entropy T*S    EENTRO =         0.00000000
  eigenvalues    EBANDS =        16.36529624
  atomic energy  EATOM  =      8329.87859146
  Solvation  Ediel_sol  =         0.00000000
  ---------------------------------------------------
  free energy    TOTEN  =       845.00731991 eV

  energy without entropy =      845.00731991  energy(sigma->0) =      845.00731991


--------------------------------------------------------------------------------------------------------




--------------------------------------- Iteration      1(   2)  ---------------------------------------


     EDDAV:  cpu time      4.5589: real time      4.5613
 BZINTS: Fermi energy:    5.309780;   92.000000 electrons
         Band energy:-0.803872E+03;  BLOECHL correction:   -0.071458
       DOS:  cpu time      0.0915: real time      0.0916
    --------------------------------------------
      LOOP:  cpu time      4.6504: real time      4.6529

 eigenvalue-minimisations  :  5144
 total energy-change (2. order) :-0.8202374E+03  (-0.7721099E+03)
 number of electron      92.0000000 magnetization      12.4000000
 augmentation part       92.0000000 magnetization      12.4000000

 Free energy of the ion-electron system (eV)
  ---------------------------------------------------
  alpha Z        PSCENC =       535.38465626
  Ewald energy   TEWEN  =     -6448.33158182
  -Hartree energ DENC   =     -1730.89632928
  -exchange      EXHF   =         0.00000000
  -V(xc)+E(xc)   XCENC  =       251.97448433
  PAW double counting   =      6529.60271450    -6638.97051180
  entropy T*S    EENTRO =         0.00000000
  eigenvalues    EBANDS =      -803.87210899
  atomic energy  EATOM  =      8329.87859146
  Solvation  Ediel_sol  =         0.00000000
  ---------------------------------------------------
  free energy    TOTEN  =        24.76991467 eV

  energy without entropy =       24.76991467  energy(sigma->0) =       24.76991467


--------------------------------------------------------------------------------------------------------




--------------------------------------- Iteration      1(   3)  ---------------------------------------


     EDDAV:  cpu time      4.5565: real time      4.5593
 BZINTS: Fermi energy:    3.823339;   92.000000 electrons
         Band energy:-0.897539E+03;  BLOECHL correction:   -0.037766
       DOS:  cpu time      0.0840: real time      0.0840
    --------------------------------------------
      LOOP:  cpu time      4.6405: real time      4.6433

 eigenvalue-minimisations  :  5128
 total energy-change (2. order) :-0.9366739E+02  (-0.8999533E+02)
 number of electron      92.0000000 magnetization      12.4000000
 augmentation part       92.0000000 magnetization      12.4000000

 Free energy of the ion-electron system (eV)
  ---------------------------------------------------
  alpha Z        PSCENC =       535.38465626
  Ewald energy   TEWEN  =     -6448.33158182
  -Hartree energ DENC   =     -1730.89632928
  -exchange      EXHF   =         0.00000000
  -V(xc)+E(xc)   XCENC  =       251.97448433
  PAW double counting   =      6529.60271450    -6638.97051180
  entropy T*S    EENTRO =         0.00000000
  eigenvalues    EBANDS =      -897.53949650
  atomic energy  EATOM  =      8329.87859146
  Solvation  Ediel_sol  =         0.00000000
  ---------------------------------------------------
  free energy    TOTEN  =       -68.89747284 eV

  energy without entropy =      -68.89747284  energy(sigma->0) =      -68.89747284


--------------------------------------------------------------------------------------------------------




--------------------------------------- Iteration      1(   4)  ---------------------------------------


     EDDAV:  cpu time      5.0325: real time      5.0356
 BZINTS: Fermi energy:    3.672234;   92.000000 electrons
         Band energy:-0.904498E+03;  BLOECHL correction:   -0.030386
       DOS:  cpu time      0.0906: real time      0.0906
    --------------------------------------------
      LOOP:  cpu time      5.1231: real time      5.1262

 eigenvalue-minimisations  :  5880
 total energy-change (2. order) :-0.6958255E+01  (-0.6876706E+01)
 number of electron      92.0000000 magnetization      12.4000000
 augmentation part       92.0000000 magnetization      12.4000000

 Free energy of the ion-electron system (eV)
  ---------------------------------------------------
  alpha Z        PSCENC =       535.38465626
  Ewald energy   TEWEN  =     -6448.33158182
  -Hartree energ DENC   =     -1730.89632928
  -exchange      EXHF   =         0.00000000
  -V(xc)+E(xc)   XCENC  =       251.97448433
  PAW double counting   =      6529.60271450    -6638.97051180
  entropy T*S    EENTRO =         0.00000000
  eigenvalues    EBANDS =      -904.49775154
  atomic energy  EATOM  =      8329.87859146
  Solvation  Ediel_sol  =         0.00000000
  ---------------------------------------------------
  free energy    TOTEN  =       -75.85572788 eV

  energy without entropy =      -75.85572788  energy(sigma->0) =      -75.85572788


--------------------------------------------------------------------------------------------------------




--------------------------------------- Iteration      1(   5)  ---------------------------------------


     EDDAV:  cpu time      6.0465: real time      6.0501
 BZINTS: Fermi energy:    3.662780;   92.000000 electrons
         Band energy:-0.904922E+03;  BLOECHL correction:   -0.031294
       DOS:  cpu time      0.0894: real time      0.0894
    CHARGE:  cpu time      0.8787: real time      0.8797
    MIXING:  cpu time      0.0111: real time      0.0111
    --------------------------------------------
      LOOP:  cpu time      7.0256: real time      7.0302

 eigenvalue-minimisations  :  7584
 total energy-change (2. order) :-0.4242479E+00  (-0.4225764E+00)
 number of electron      92.0000001 magnetization       7.8916643
 augmentation part       14.7135525 magnetization       7.7609005

 Broyden mixing:
  rms(total) = 0.37602E+01    rms(broyden)= 0.37602E+01
  rms(prec ) = 0.54422E+01
  weight for this iteration     100.00

 Free energy of the ion-electron system (eV)
  ---------------------------------------------------
  alpha Z        PSCENC =       535.38465626
  Ewald energy   TEWEN  =     -6448.33158182
  -Hartree energ DENC   =     -1730.89632928
  -exchange      EXHF   =         0.00000000
  -V(xc)+E(xc)   XCENC  =       251.97448433
  PAW double counting   =      6529.60271450    -6638.97051180
  entropy T*S    EENTRO =         0.00000000
  eigenvalues    EBANDS =      -904.92199939
  atomic energy  EATOM  =      8329.87859146
  Solvation  Ediel_sol  =         0.00000000
  ---------------------------------------------------
  free energy    TOTEN  =       -76.27997573 eV

  energy without entropy =      -76.27997573  energy(sigma->0) =      -76.27997573


--------------------------------------------------------------------------------------------------------




--------------------------------------- Iteration      1(   6)  ---------------------------------------


    POTLOK:  cpu time      0.0209: real time      0.0222
    SETDIJ:  cpu time      2.3409: real time      2.3417
    EDDIAG:  cpu time      0.1862: real time      0.1863
  RMM-DIIS:  cpu time      3.0630: real time      3.0654
    ORTHCH:  cpu time      0.0638: real time      0.0638
 BZINTS: Fermi energy:    6.257127;   92.000000 electrons
         Band energy:-0.778507E+03;  BLOECHL correction:   -0.305889
       DOS:  cpu time      0.0874: real time      0.0874
    CHARGE:  cpu time      0.8707: real time      0.8715
    MIXING:  cpu time      0.0122: real time      0.0238
    --------------------------------------------
      LOOP:  cpu time      6.6451: real time      6.6621

 eigenvalue-minimisations  :  7142
 total energy-change (2. order) :-0.2530627E+03  (-0.1067261E+02)
 number of electron      92.0000000 magnetization       7.0029829
 augmentation part        3.8808019 magnetization       5.6468583

 Broyden mixing:
  rms(total) = 0.71385E+01    rms(broyden)= 0.71385E+01
  rms(prec ) = 0.11400E+02
  weight for this iteration     100.00

 eigenvalues of (default mixing * dielectric matrix)
  average eigenvalue GAMMA=   0.3539
  0.3539

 Free energy of the ion-electron system (eV)
  ---------------------------------------------------
  alpha Z        PSCENC =       535.38465626
  Ewald energy   TEWEN  =     -6448.33158182
  -Hartree energ DENC   =     -1990.15478378
  -exchange      EXHF   =         0.00000000
  -V(xc)+E(xc)   XCENC  =       259.77353552
  PAW double counting   =      7610.23729058    -7847.62345939
  entropy T*S    EENTRO =         0.00000000
  eigenvalues    EBANDS =      -778.50692410
  atomic energy  EATOM  =      8329.87859146
  Solvation  Ediel_sol  =         0.00000000
  ---------------------------------------------------
  free energy    TOTEN  =      -329.34267526 eV

  energy without entropy =     -329.34267526  energy(sigma->0) =     -329.34267526


--------------------------------------------------------------------------------------------------------




--------------------------------------- Iteration      1(   7)  ---------------------------------------


    POTLOK:  cpu time      0.0210: real time      0.0215
    SETDIJ:  cpu time      2.3552: real time      2.3567
    EDDIAG:  cpu time      0.1861: real time      0.1862
  RMM-DIIS:  cpu time      2.7064: real time      2.7087
    ORTHCH:  cpu time      0.0631: real time      0.0631
 BZINTS: Fermi energy:    6.689065;   92.000000 electrons
         Band energy:-0.817543E+03;  BLOECHL correction:   -0.322950
       DOS:  cpu time      0.0944: real time      0.0945
    CHARGE:  cpu time      0.8733: real time      0.8742
    MIXING:  cpu time      0.0112: real time      0.0112
    --------------------------------------------
      LOOP:  cpu time      6.3108: real time      6.3162

 eigenvalue-minimisations  :  6229
 total energy-change (2. order) : 0.1992677E+03  (-0.3565463E+01)
 number of electron      92.0000000 magnetization       6.0946567
 augmentation part        4.0275740 magnetization       4.1878835

 Broyden mixing:
  rms(total) = 0.58683E+01    rms(broyden)= 0.58683E+01
  rms(prec ) = 0.93223E+01
  weight for this iteration     100.00

 eigenvalues of (default mixing * dielectric matrix)
  average eigenvalue GAMMA=   0.8633
  0.8633  0.8633

 Free energy of the ion-electron system (eV)
  ---------------------------------------------------
  alpha Z        PSCENC =       535.38465626
  Ewald energy   TEWEN  =     -6448.33158182
  -Hartree energ DENC   =     -1817.46912692
  -exchange      EXHF   =         0.00000000
  -V(xc)+E(xc)   XCENC  =       254.05007390
  PAW double counting   =      7502.05133043    -7668.09603386
  entropy T*S    EENTRO =         0.00000000
  eigenvalues    EBANDS =      -817.54286195
  atomic energy  EATOM  =      8329.87859146
  Solvation  Ediel_sol  =         0.00000000
  ---------------------------------------------------
  free energy    TOTEN  =      -130.07495248 eV

  energy without entropy =     -130.07495248  energy(sigma->0) =     -130.07495248


--------------------------------------------------------------------------------------------------------




--------------------------------------- Iteration      1(   8)  ---------------------------------------


    POTLOK:  cpu time      0.0207: real time      0.0213
    SETDIJ:  cpu time      2.3709: real time      2.3731
    EDDIAG:  cpu time      0.1861: real time      0.1863
  RMM-DIIS:  cpu time      3.0629: real time      3.0646
    ORTHCH:  cpu time      0.0634: real time      0.0634
 BZINTS: Fermi energy:    1.767011;   92.000000 electrons
         Band energy:-0.117265E+04;  BLOECHL correction:   -0.147057
       DOS:  cpu time      0.0849: real time      0.0849
    CHARGE:  cpu time      0.8666: real time      0.8670
    MIXING:  cpu time      0.0109: real time      0.0110
    --------------------------------------------
      LOOP:  cpu time      6.6665: real time      6.6716

 eigenvalue-minimisations  :  7154
 total energy-change (2. order) :-0.6691636E+02  (-0.2727121E+02)
 number of electron      92.0000001 magnetization       5.8114127
 augmentation part       17.9491210 magnetization       4.8001818

 Broyden mixing:
  rms(total) = 0.81899E+01    rms(broyden)= 0.81899E+01
  rms(prec ) = 0.10796E+02
  weight for this iteration     100.00

 eigenvalues of (default mixing * dielectric matrix)
  average eigenvalue GAMMA=   0.5886
  0.8592  0.8592  0.0475

 Free energy of the ion-electron system (eV)
  ---------------------------------------------------
  alpha Z        PSCENC =       535.38465626
  Ewald energy   TEWEN  =     -6448.33158182
  -Hartree energ DENC   =     -1612.87233365
  -exchange      EXHF   =         0.00000000
  -V(xc)+E(xc)   XCENC  =       247.40433732
  PAW double counting   =      7486.93899896    -7562.74889526
  entropy T*S    EENTRO =         0.00000000
  eigenvalues    EBANDS =     -1172.64508467
  atomic energy  EATOM  =      8329.87859146
  Solvation  Ediel_sol  =         0.00000000
  ---------------------------------------------------
  free energy    TOTEN  =      -196.99131140 eV

  energy without entropy =     -196.99131140  energy(sigma->0) =     -196.99131140


--------------------------------------------------------------------------------------------------------




--------------------------------------- Iteration      1(   9)  ---------------------------------------


    POTLOK:  cpu time      0.0206: real time      0.0215
    SETDIJ:  cpu time      2.3411: real time      2.3420
    EDDIAG:  cpu time      0.1865: real time      0.1866
  RMM-DIIS:  cpu time      3.1683: real time      3.1704
    ORTHCH:  cpu time      0.0637: real time      0.0637
 BZINTS: Fermi energy:    1.735175;   92.000000 electrons
         Band energy:-0.116550E+04;  BLOECHL correction:   -0.147137
       DOS:  cpu time      0.0871: real time      0.0872
    CHARGE:  cpu time      0.8708: real time      0.8714
    MIXING:  cpu time      0.0114: real time      0.0114
    --------------------------------------------
      LOOP:  cpu time      6.7496: real time      6.7543

 eigenvalue-minimisations  :  7256
 total energy-change (2. order) :-0.1286281E+01  (-0.8972980E+01)
 number of electron      92.0000001 magnetization       3.5910051
 augmentation part       17.6435486 magnetization       2.6295262

 Broyden mixing:
  rms(total) = 0.65075E+01    rms(broyden)= 0.65075E+01
  rms(prec ) = 0.97354E+01
  weight for this iteration     100.00

 eigenvalues of (default mixing * dielectric matrix)
  average eigenvalue GAMMA=   0.5253
  1.2369  0.3300  0.3300  0.2042

 Free energy of the ion-electron system (eV)
  ---------------------------------------------------
  alpha Z        PSCENC =       535.38465626
  Ewald energy   TEWEN  =     -6448.33158182
  -Hartree energ DENC   =     -1616.74213910
  -exchange      EXHF   =         0.00000000
  -V(xc)+E(xc)   XCENC  =       247.48601597
  PAW double counting   =      7558.91165678    -7639.36065022
  entropy T*S    EENTRO =         0.00000000
  eigenvalues    EBANDS =     -1165.50414176
  atomic energy  EATOM  =      8329.87859146
  Solvation  Ediel_sol  =         0.00000000
  ---------------------------------------------------
  free energy    TOTEN  =      -198.27759243 eV

  energy without entropy =     -198.27759243  energy(sigma->0) =     -198.27759243


--------------------------------------------------------------------------------------------------------




--------------------------------------- Iteration      1(  10)  ---------------------------------------


    POTLOK:  cpu time      0.0204: real time      0.0214
    SETDIJ:  cpu time      2.3631: real time      2.3648
    EDDIAG:  cpu time      0.1863: real time      0.1864
  RMM-DIIS:  cpu time      2.9669: real time      2.9690
    ORTHCH:  cpu time      0.0636: real time      0.0636
 BZINTS: Fermi energy:    1.563506;   92.000000 electrons
         Band energy:-0.104941E+04;  BLOECHL correction:   -0.147164
       DOS:  cpu time      0.0863: real time      0.0864
    CHARGE:  cpu time      0.8720: real time      0.8725
    MIXING:  cpu time      0.0119: real time      0.0119
    --------------------------------------------
      LOOP:  cpu time      6.5705: real time      6.5759

 eigenvalue-minimisations  :  6682
 total energy-change (2. order) : 0.5345394E+02  (-0.3478818E+01)
 number of electron      92.0000001 magnetization       2.5834959
 augmentation part       17.2763256 magnetization       1.8327565

 Broyden mixing:
  rms(total) = 0.55629E+01    rms(broyden)= 0.55629E+01
  rms(prec ) = 0.88165E+01
  weight for this iteration     100.00

 eigenvalues of (default mixing * dielectric matrix)
  average eigenvalue GAMMA=   0.6036
  1.2345  0.6456  0.5028  0.5028  0.1324

 Free energy of the ion-electron system (eV)
  ---------------------------------------------------
  alpha Z        PSCENC =       535.38465626
  Ewald energy   TEWEN  =     -6448.33158182
  -Hartree energ DENC   =     -1657.31845577
  -exchange      EXHF   =         0.00000000
  -V(xc)+E(xc)   XCENC  =       248.41499788
  PAW double counting   =      8116.34235432    -8219.78381035
  entropy T*S    EENTRO =         0.00000000
  eigenvalues    EBANDS =     -1049.41040834
  atomic energy  EATOM  =      8329.87859146
  Solvation  Ediel_sol  =         0.00000000
  ---------------------------------------------------
  free energy    TOTEN  =      -144.82365634 eV

  energy without entropy =     -144.82365634  energy(sigma->0) =     -144.82365634


--------------------------------------------------------------------------------------------------------




--------------------------------------- Iteration      1(  11)  ---------------------------------------


    POTLOK:  cpu time      0.0210: real time      0.0220
    SETDIJ:  cpu time      2.3465: real time      2.3478
    EDDIAG:  cpu time      0.1862: real time      0.1864
  RMM-DIIS:  cpu time      3.1307: real time      3.1324
    ORTHCH:  cpu time      0.0634: real time      0.0634
 BZINTS: Fermi energy:    6.833469;   92.000000 electrons
         Band energy:-0.827744E+03;  BLOECHL correction:   -0.284310
       DOS:  cpu time      0.0901: real time      0.0901
    CHARGE:  cpu time      0.8681: real time      0.8687
    MIXING:  cpu time      0.0134: real time      0.0134
    --------------------------------------------
      LOOP:  cpu time      6.7193: real time      6.7242

 eigenvalue-minimisations  :  7329
 total energy-change (2. order) : 0.5747724E+02  (-0.3869310E+01)
 number of electron      92.0000000 magnetization       1.7243043
 augmentation part        3.9121686 magnetization       0.9547030

 Broyden mixing:
  rms(total) = 0.51774E+01    rms(broyden)= 0.51774E+01
  rms(prec ) = 0.82393E+01
  weight for this iteration     100.00

 eigenvalues of (default mixing * dielectric matrix)
  average eigenvalue GAMMA=   0.6653
  1.2713  1.2713  0.4276  0.4276  0.4630  0.1311

 Free energy of the ion-electron system (eV)
  ---------------------------------------------------
  alpha Z        PSCENC =       535.38465626
  Ewald energy   TEWEN  =     -6448.33158182
  -Hartree energ DENC   =     -1769.98018904
  -exchange      EXHF   =         0.00000000
  -V(xc)+E(xc)   XCENC  =       251.84725101
  PAW double counting   =      8428.07067665    -8586.47212005
  entropy T*S    EENTRO =         0.00000000
  eigenvalues    EBANDS =      -827.74369863
  atomic energy  EATOM  =      8329.87859146
  Solvation  Ediel_sol  =         0.00000000
  ---------------------------------------------------
  free energy    TOTEN  =       -87.34641415 eV

  energy without entropy =      -87.34641415  energy(sigma->0) =      -87.34641415


--------------------------------------------------------------------------------------------------------




--------------------------------------- Iteration      1(  12)  ---------------------------------------


    POTLOK:  cpu time      0.0209: real time      0.0213
    SETDIJ:  cpu time      2.3385: real time      2.3394
    EDDIAG:  cpu time      0.1860: real time      0.1862
  RMM-DIIS:  cpu time      2.7425: real time      2.7439
    ORTHCH:  cpu time      0.0634: real time      0.0634
 BZINTS: Fermi energy:    3.355659;   92.000000 electrons
         Band energy:-0.877516E+03;  BLOECHL correction:   -0.008067
       DOS:  cpu time      0.0846: real time      0.0846
    CHARGE:  cpu time      0.8684: real time      0.8689
    MIXING:  cpu time      0.0129: real time      0.0129
    --------------------------------------------
      LOOP:  cpu time      6.3172: real time      6.3207

 eigenvalue-minimisations  :  6186
 total energy-change (2. order) : 0.1412429E+02  (-0.5326060E+00)
 number of electron      92.0000001 magnetization       1.6572850
 augmentation part       14.7862260 magnetization       1.4471391

 Broyden mixing:
  rms(total) = 0.33182E+01    rms(broyden)= 0.33182E+01
  rms(prec ) = 0.51914E+01
  weight for this iteration     100.00

 eigenvalues of (default mixing * dielectric matrix)
  average eigenvalue GAMMA=   0.5865
  1.2917  1.2917  0.4291  0.4291  0.4425  0.1312  0.0901

 Free energy of the ion-electron system (eV)
  ---------------------------------------------------
  alpha Z        PSCENC =       535.38465626
  Ewald energy   TEWEN  =     -6448.33158182
  -Hartree energ DENC   =     -1727.88035664
  -exchange      EXHF   =         0.00000000
  -V(xc)+E(xc)   XCENC  =       250.37143364
  PAW double counting   =      8586.76241329    -8721.89144412
  entropy T*S    EENTRO =         0.00000000
  eigenvalues    EBANDS =      -877.51583704
  atomic energy  EATOM  =      8329.87859146
  Solvation  Ediel_sol  =         0.00000000
  ---------------------------------------------------
  free energy    TOTEN  =       -73.22212496 eV

  energy without entropy =      -73.22212496  energy(sigma->0) =      -73.22212496


--------------------------------------------------------------------------------------------------------




--------------------------------------- Iteration      1(  13)  ---------------------------------------


    POTLOK:  cpu time      0.0206: real time      0.0215
    SETDIJ:  cpu time      2.3527: real time      2.3540
    EDDIAG:  cpu time      0.1861: real time      0.1863
  RMM-DIIS:  cpu time      3.0839: real time      3.0855
    ORTHCH:  cpu time      0.0633: real time      0.0633
 BZINTS: Fermi energy:    3.390807;   92.000000 electrons
         Band energy:-0.878802E+03;  BLOECHL correction:   -0.002819
       DOS:  cpu time      0.0819: real time      0.0820
    CHARGE:  cpu time      0.8712: real time      0.8717
    MIXING:  cpu time      0.0130: real time      0.0130
    --------------------------------------------
      LOOP:  cpu time      6.6728: real time      6.6776

 eigenvalue-minimisations  :  7351
 total energy-change (2. order) :-0.5331732E+00  (-0.5759747E-01)
 number of electron      92.0000001 magnetization       1.6603874
 augmentation part       14.7425585 magnetization       1.4571725

 Broyden mixing:
  rms(total) = 0.33353E+01    rms(broyden)= 0.33353E+01
  rms(prec ) = 0.51901E+01
  weight for this iteration     100.00

 eigenvalues of (default mixing * dielectric matrix)
  average eigenvalue GAMMA=   0.5195
  1.2916  1.2916  0.4292  0.4292  0.4425  0.1312  0.1191  0.0213

 Free energy of the ion-electron system (eV)
  ---------------------------------------------------
  alpha Z        PSCENC =       535.38465626
  Ewald energy   TEWEN  =     -6448.33158182
  -Hartree energ DENC   =     -1727.22473040
  -exchange      EXHF   =         0.00000000
  -V(xc)+E(xc)   XCENC  =       250.33980715
  PAW double counting   =      8598.64187687    -8733.64169233
  entropy T*S    EENTRO =         0.00000000
  eigenvalues    EBANDS =      -878.80222535
  atomic energy  EATOM  =      8329.87859146
  Solvation  Ediel_sol  =         0.00000000
  ---------------------------------------------------
  free energy    TOTEN  =       -73.75529814 eV

  energy without entropy =      -73.75529814  energy(sigma->0) =      -73.75529814


--------------------------------------------------------------------------------------------------------




--------------------------------------- Iteration      1(  14)  ---------------------------------------


    POTLOK:  cpu time      0.0205: real time      0.0217
    SETDIJ:  cpu time      2.3370: real time      2.3378
    EDDIAG:  cpu time      0.1862: real time      0.1862
  RMM-DIIS:  cpu time      2.9688: real time      2.9701
    ORTHCH:  cpu time      0.0636: real time      0.0636
 BZINTS: Fermi energy:    3.524616;   92.000000 electrons
         Band energy:-0.881448E+03;  BLOECHL correction:    0.000000
       DOS:  cpu time      0.0508: real time      0.0508
    CHARGE:  cpu time      0.8674: real time      0.8678
    MIXING:  cpu time      0.0135: real time      0.0135
    --------------------------------------------
      LOOP:  cpu time      6.5077: real time      6.5116

 eigenvalue-minimisations  :  6800
 total energy-change (2. order) :-0.9212537E+00  (-0.1395061E-01)
 number of electron      92.0000001 magnetization       1.6596766
 augmentation part       14.7607473 magnetization       1.4674721

 Broyden mixing:
  rms(total) = 0.33595E+01    rms(broyden)= 0.33595E+01
  rms(prec ) = 0.52175E+01
  weight for this iteration     100.00

 eigenvalues of (default mixing * dielectric matrix)
  average eigenvalue GAMMA=   0.4966
  1.2957  1.2957  0.4300  0.4300  0.4428  0.1681  0.1681  0.1310  0.1078

 Free energy of the ion-electron system (eV)
  ---------------------------------------------------
  alpha Z        PSCENC =       535.38465626
  Ewald energy   TEWEN  =     -6448.33158182
  -Hartree energ DENC   =     -1726.18916505
  -exchange      EXHF   =         0.00000000
  -V(xc)+E(xc)   XCENC  =       250.30762778
  PAW double counting   =      8591.43601576    -8725.71490443
  entropy T*S    EENTRO =         0.00000000
  eigenvalues    EBANDS =      -881.44779184
  atomic energy  EATOM  =      8329.87859146
  Solvation  Ediel_sol  =         0.00000000
  ---------------------------------------------------
  free energy    TOTEN  =       -74.67655185 eV

  energy without entropy =      -74.67655185  energy(sigma->0) =      -74.67655185


--------------------------------------------------------------------------------------------------------




--------------------------------------- Iteration      1(  15)  ---------------------------------------


    POTLOK:  cpu time      0.0206: real time      0.0218
    SETDIJ:  cpu time      2.3593: real time      2.3608
    EDDIAG:  cpu time      0.1861: real time      0.1862
  RMM-DIIS:  cpu time      2.9163: real time      2.9175
    ORTHCH:  cpu time      0.0634: real time      0.0634
 BZINTS: Fermi energy:    3.527944;   92.000000 electrons
         Band energy:-0.880044E+03;  BLOECHL correction:   -0.000000
       DOS:  cpu time      0.0478: real time      0.0478
    CHARGE:  cpu time      0.8693: real time      0.8699
    MIXING:  cpu time      0.0144: real time      0.0144
    --------------------------------------------
      LOOP:  cpu time      6.4771: real time      6.4816

 eigenvalue-minimisations  :  6683
 total energy-change (2. order) : 0.4663410E+00  (-0.5817121E-02)
 number of electron      92.0000001 magnetization       1.6731490
 augmentation part       14.7433100 magnetization       1.4770350

 Broyden mixing:
  rms(total) = 0.33404E+01    rms(broyden)= 0.33404E+01
  rms(prec ) = 0.51860E+01
  weight for this iteration     100.00

 eigenvalues of (default mixing * dielectric matrix)
  average eigenvalue GAMMA=   0.5376
  1.2835  1.2835  0.4566  0.4566  0.4320  0.4320  0.4371  0.1313  0.2319  0.2319

 Free energy of the ion-electron system (eV)
  ---------------------------------------------------
  alpha Z        PSCENC =       535.38465626
  Ewald energy   TEWEN  =     -6448.33158182
  -Hartree energ DENC   =     -1726.95400943
  -exchange      EXHF   =         0.00000000
  -V(xc)+E(xc)   XCENC  =       250.32714588
  PAW double counting   =      8595.41478188    -8729.88606925
  entropy T*S    EENTRO =         0.00000000
  eigenvalues    EBANDS =      -880.04372586
  atomic energy  EATOM  =      8329.87859146
  Solvation  Ediel_sol  =         0.00000000
  ---------------------------------------------------
  free energy    TOTEN  =       -74.21021087 eV

  energy without entropy =      -74.21021087  energy(sigma->0) =      -74.21021087


--------------------------------------------------------------------------------------------------------




--------------------------------------- Iteration      1(  16)  ---------------------------------------


    POTLOK:  cpu time      0.0209: real time      0.0214
    SETDIJ:  cpu time      2.3479: real time      2.3492
    EDDIAG:  cpu time      0.1860: real time      0.1862
  RMM-DIIS:  cpu time      3.1200: real time      3.1216
    ORTHCH:  cpu time      0.0634: real time      0.0634
 BZINTS: Fermi energy:    4.173411;   92.000000 electrons
         Band energy:-0.871509E+03;  BLOECHL correction:   -0.046943
       DOS:  cpu time      0.0839: real time      0.0840
    CHARGE:  cpu time      0.8727: real time      0.8731
    MIXING:  cpu time      0.0134: real time      0.0134
    --------------------------------------------
      LOOP:  cpu time      6.7082: real time      6.7121

 eigenvalue-minimisations  :  7269
 total energy-change (2. order) : 0.2528984E+01  (-0.1841570E-01)
 number of electron      92.0000001 magnetization       1.3181820
 augmentation part       14.1972478 magnetization       0.9682963

 Broyden mixing:
  rms(total) = 0.28386E+01    rms(broyden)= 0.28386E+01
  rms(prec ) = 0.44589E+01
  weight for this iteration     100.00

 eigenvalues of (default mixing * dielectric matrix)
  average eigenvalue GAMMA=   0.5809
  1.9740  0.8692  0.6238  0.6238  0.4258  0.4258  0.3311  0.3311  0.3903  0.1313
  0.2636

 Free energy of the ion-electron system (eV)
  ---------------------------------------------------
  alpha Z        PSCENC =       535.38465626
  Ewald energy   TEWEN  =     -6448.33158182
  -Hartree energ DENC   =     -1731.39502917
  -exchange      EXHF   =         0.00000000
  -V(xc)+E(xc)   XCENC  =       250.44458814
  PAW double counting   =      8614.84045445    -8750.99421573
  entropy T*S    EENTRO =         0.00000000
  eigenvalues    EBANDS =      -871.50869008
  atomic energy  EATOM  =      8329.87859146
  Solvation  Ediel_sol  =         0.00000000
  ---------------------------------------------------
  free energy    TOTEN  =       -71.68122648 eV

  energy without entropy =      -71.68122648  energy(sigma->0) =      -71.68122648


--------------------------------------------------------------------------------------------------------




--------------------------------------- Iteration      1(  17)  ---------------------------------------


    POTLOK:  cpu time      0.0207: real time      0.0214
    SETDIJ:  cpu time      2.3432: real time      2.3445
    EDDIAG:  cpu time      0.1862: real time      0.1863
  RMM-DIIS:  cpu time      3.2672: real time      3.2685
    ORTHCH:  cpu time      0.0639: real time      0.0639
 BZINTS: Fermi energy:    5.046484;   92.000000 electrons
         Band energy:-0.856867E+03;  BLOECHL correction:   -0.083872
       DOS:  cpu time      0.0935: real time      0.0935
    CHARGE:  cpu time      0.8697: real time      0.8701
    MIXING:  cpu time      0.0162: real time      0.0162
    --------------------------------------------
      LOOP:  cpu time      6.8604: real time      6.8645

 eigenvalue-minimisations  :  7764
 total energy-change (2. order) : 0.3623761E+01  (-0.6270335E-01)
 number of electron      92.0000001 magnetization       0.7817043
 augmentation part       12.2791670 magnetization       0.3766479

 Broyden mixing:
  rms(total) = 0.13529E+01    rms(broyden)= 0.13529E+01
  rms(prec ) = 0.21119E+01
  weight for this iteration     100.00

 eigenvalues of (default mixing * dielectric matrix)
  average eigenvalue GAMMA=   0.5723
  2.1475  0.5934  0.5934  0.7476  0.4433  0.4433  0.4005  0.4005  0.1313  0.3767
  0.2951  0.2951

 Free energy of the ion-electron system (eV)
  ---------------------------------------------------
  alpha Z        PSCENC =       535.38465626
  Ewald energy   TEWEN  =     -6448.33158182
  -Hartree energ DENC   =     -1738.82517942
  -exchange      EXHF   =         0.00000000
  -V(xc)+E(xc)   XCENC  =       250.72106612
  PAW double counting   =      8715.35601972    -8855.37373893
  entropy T*S    EENTRO =         0.00000000
  eigenvalues    EBANDS =      -856.86729838
  atomic energy  EATOM  =      8329.87859146
  Solvation  Ediel_sol  =         0.00000000
  ---------------------------------------------------
  free energy    TOTEN  =       -68.05746498 eV

  energy without entropy =      -68.05746498  energy(sigma->0) =      -68.05746498


--------------------------------------------------------------------------------------------------------




--------------------------------------- Iteration      1(  18)  ---------------------------------------


    POTLOK:  cpu time      0.0208: real time      0.0220
    SETDIJ:  cpu time      2.3407: real time      2.3418
    EDDIAG:  cpu time      0.1861: real time      0.1861
  RMM-DIIS:  cpu time      3.2772: real time      3.2788
    ORTHCH:  cpu time      0.0635: real time      0.0635
 BZINTS: Fermi energy:    4.654774;   92.000000 electrons
         Band energy:-0.865445E+03;  BLOECHL correction:   -0.026462
       DOS:  cpu time      0.0839: real time      0.0840
    CHARGE:  cpu time      0.8715: real time      0.8724
    MIXING:  cpu time      0.0162: real time      0.0163
    --------------------------------------------
      LOOP:  cpu time      6.8600: real time      6.8648

 eigenvalue-minimisations  :  7732
 total energy-change (2. order) :-0.1273273E+01  (-0.3874449E-01)
 number of electron      92.0000001 magnetization       0.2620650
 augmentation part       13.3707913 magnetization       0.2208031

 Broyden mixing:
  rms(total) = 0.22830E+01    rms(broyden)= 0.22829E+01
  rms(prec ) = 0.34677E+01
  weight for this iteration     100.00

 eigenvalues of (default mixing * dielectric matrix)
  average eigenvalue GAMMA=   0.5835
  2.3578  0.5685  0.5685  0.6922  0.4834  0.4834  0.4552  0.4552  0.1313  0.3327
  0.3327  0.4058  0.3192

 Free energy of the ion-electron system (eV)
  ---------------------------------------------------
  alpha Z        PSCENC =       535.38465626
  Ewald energy   TEWEN  =     -6448.33158182
  -Hartree energ DENC   =     -1732.96996701
  -exchange      EXHF   =         0.00000000
  -V(xc)+E(xc)   XCENC  =       250.71634185
  PAW double counting   =      8758.95530886    -8897.51924587
  entropy T*S    EENTRO =         0.00000000
  eigenvalues    EBANDS =      -865.44484201
  atomic energy  EATOM  =      8329.87859146
  Solvation  Ediel_sol  =         0.00000000
  ---------------------------------------------------
  free energy    TOTEN  =       -69.33073827 eV

  energy without entropy =      -69.33073827  energy(sigma->0) =      -69.33073827


--------------------------------------------------------------------------------------------------------




--------------------------------------- Iteration      1(  19)  ---------------------------------------


    POTLOK:  cpu time      0.0208: real time      0.0217
    SETDIJ:  cpu time      2.3384: real time      2.3394
    EDDIAG:  cpu time      0.1862: real time      0.1864
  RMM-DIIS:  cpu time      3.2784: real time      3.2797
    ORTHCH:  cpu time      0.0634: real time      0.0634
 BZINTS: Fermi energy:    4.715729;   92.000000 electrons
         Band energy:-0.864379E+03;  BLOECHL correction:   -0.085275
       DOS:  cpu time      0.0833: real time      0.0834
    CHARGE:  cpu time      0.8688: real time      0.8693
    MIXING:  cpu time      0.0161: real time      0.0161
    --------------------------------------------
      LOOP:  cpu time      6.8555: real time      6.8594

 eigenvalue-minimisations  :  7798
[...]
  352                map_gather                            0.000517                   12   7
  353                m_alltoallv_z                         0.000154                   12   7
  354                map_scatter                           0.001288                   12   7
  355        m_sumb_d                              0.000032                            5   3
  356        forhar                                0.007383                            2   3
  357          m_sumb_d                              0.000041                          2   4
  358        strehar                               0.005449                            1   3
  359          m_sumb_d                              0.000011                          1   4
  360        chggra                                0.001496                            1   3
  361          fft3d_mpi                             0.001002                          3   4
  362            fftbrc_mpi                            0.000728                        3   5
  363              fftbas_plan_mpi                       0.000725                      3   6
  364                map_forward                           0.000463                    4   7
  365                  map_gather                            0.000078                  2   8
  366                  m_alltoallv_z                         0.000030                  2   8
  367                  map_scatter                           0.000304                  2   8
  368                map_backward                          0.000173                    2   7
  369                  map_gather                            0.000043                  1   8
  370                  m_alltoallv_z                         0.000013                  1   8
  371                  map_scatter                           0.000086                  1   8
  372          m_sumb_d                              0.000009                          2   4
  373          pothar                                0.000128                          1   4
  374            m_sumb_d                              0.000031                        1   5
  375        brmix                                 0.032982                            1   3
  376          m_sumb_d                              0.000054                          6   4
  377          brpre                                 0.000104                          2   4
  378          setg0                                 0.004112                          1   4
  379          broyd                                 0.023615                          1   4
  380            m_sumb_d                              0.000245                       51   5
  381            brget                                 0.004761                      229   5
  382            brsav                                 0.001015                       49   5
  383        m_bcast_d                             0.000030                            2   3
  384      potlok                                0.124726                              2   2
  385        fft3d_mpi                             0.085767                           36   3
  386          fftbrc_mpi                            0.072550                         36   4
  387            fftbas_plan_mpi                       0.072526                       36   5
  388              map_forward                           0.019695                     40   6
  389                map_gather                            0.004982                   24   7
  390                m_alltoallv_z                         0.008508                   24   7
  391                map_scatter                           0.005876                   24   7
  392              map_backward                          0.016645                     32   6
  393                map_gather                            0.003803                   16   7
  394                m_alltoallv_z                         0.007505                   16   7
  395                map_scatter                           0.004947                   16   7
  396              dfftw_execute                         0.034315                     30   6
  397        m_sumb_d                              0.000028                            5   3
  398        pothar                                0.006441                            2   3
  399          m_sumb_d                              0.000102                          2   4
  400        m_bcast_d                             0.009707                            4   3
  401      potlok_metagga                        0.000000                              1   2
  402      set_dd_magatom                        0.000004                              1   2
  403      set_dd_paw                            1.630723                              1   2
  404        m_sumb_d                              0.928774                            7   3
  405      augmentation_charge                   0.721518                              1   2
  406        fft3d_mpi                             0.275692                            2   3
  407          fftbrc_mpi                            0.242001                          2   4
  408            fftbas_plan_mpi                       0.241999                        2   5
  409              dfftw_execute                         0.157790                      6   6
  410              map_backward                          0.083916                      4   6
  411                map_gather                            0.029340                    2   7
  412                m_alltoallv_z                         0.020061                    2   7
  413                map_scatter                           0.034502                    2   7
  414      densta                                1.303164                              1   2
 
 Flat profile
 ============
 
             routine name                   CPU           calls
 ---------------------------------------------------------------
 raccmu_                               332.353155      154896
 m_sumb_d                              307.696344       62257
 set_dd_paw                            217.159063         307
 phaser                                166.085542       10727
 setdij_                               144.885788         333
 augmentation_charge                   136.361939         306
 dfftw_execute                         107.663194        7740
 eccp                                   91.630930      883857
 i2                                     57.058326      149808
 w1_gemv                                55.636404     2269774
 eddrmm                                 51.983223         304
 eccp_nl                                43.161926      715761
 total_time                             36.166375           1
 densta                                 28.090778         310
 fft3d_mpi                              22.564291      736552
 cnorma                                 21.694259      715761
 map_scatter                            20.685366       11785
 overl1                                 18.997291     1134887
 map_gather                             18.048328       11785
 eddiag                                 17.742933         304
 redis_pw                               17.721494      100568
 m_alltoallv_z                          15.938969       11785
 hamilt_local                           15.132131      165376
 set_charge                             14.807419         305
 hamiltmu                               13.312496      154896
 fft3d                                  12.770554     1759656
 init_acc                               11.841984           1
 m_alltoall_d                           11.089783     1895808
 fftwav                                 10.501714     1033665
 w1_dscal                               10.317694     1705601
 soft_charge                             9.434078         305
 w1_copy                                 9.341260     1681845
 w1_gaxpy                                9.264305     1776499
 apply_precond                           9.177300     1949304
 pw_charge                               6.170719      127797
 rpromu_acc                              6.070305      155304
 setup_precond                           6.022023      168096
 w1_daxpy                                5.857388     1100824
 racc0mu_acc                             5.533519      154896
 broyd                                   4.831278         305
 w1_dot                                  4.719783      165349
 newband                                 4.628526      165402
 potlok                                  3.811534         307
 zhegv                                   3.440414      385063
 vhamil                                  3.185463      725991
 kinhamil                                3.121951      725991
 eddav                                   3.101232           5
 fftext_mpi                              3.001475      725991
 redis_proj                              2.876216       97722
 depsum                                  2.707797         305
 overl_mu                                2.479721      154896
 acc_init_cublas                         2.440336           1
 lapack                                  2.295903        5088
 brmix                                   2.021089         305
 fftwav_mpi                              1.699421     1033665
 orthch                                  1.558931         305
 i3                                      1.457758      149808
 brget                                   1.449544       68373
 choleski                                1.446421       10370
 setg0                                   1.338677         307
 orth1                                   0.919953       56676
 rspher_all                              0.881389          14
 acc_init_cusolver                       0.815340           1
 elmin                                   0.813676           1
 fftbas_plan_mpi                         0.594614       10561
 rpro_isp                                0.481661         221
 lincom                                  0.427157       20876
 brsav                                   0.404120       19579
 overl                                   0.352705       38338
 m_bcast_z                               0.241639        7264
 i1                                      0.165385      149808
 w1_projall                              0.145531      153536
 acc_cufft_makeplan                      0.129584          19
 map_backward                            0.123402       11166
 fft_gq                                  0.106152         305
 map_forward                             0.101839        9956
 m_bcast_d                               0.099379       10795
 ggemm                                   0.068424        6448
 sphpro_fast                             0.057691           2
 proall                                  0.055136           1
 truncate_high_frequency_w1              0.054497      728711
 pothar                                  0.041648         308
 brpre                                   0.031942         610
 force_and_stress                        0.024864           1
 stufak                                  0.019871           1
 forhar                                  0.007342           2
 fftbrc_mpi                              0.006918       10561
 strelo                                  0.006298           1
 strehar                                 0.005438           1
 strnlr                                  0.005217           1
 inisym                                  0.004300           1
 forloc                                  0.003750           1
 fornlr                                  0.001793           1
 set_dd_magatom                          0.001437         307
 vectorpot                               0.001311         306
 shift_bands_between_low_high            0.001274       10336
 strkin                                  0.000743           1
 brgrid                                  0.000672           1
 fewald                                  0.000390           1
 rsp                                     0.000366           1
 chggra                                  0.000357           1
 fordep                                  0.000071           1
 crpa_reader                             0.000026           1
 posmap                                  0.000025           2
 potlok_metagga                          0.000020         306
 rcp                                     0.000019           1
 acc_cufft_makeplans                     0.000014           3
 rotate_active_occupied_orbital          0.000001           1
 redis_pw_over_bands                     0.000000           1
 ---------------------------------------------------------------
  summed up times     2160.789443969727     
 
 Accumulative profile
 ====================
 
             routine name                   CPU           calls
 ---------------------------------------------------------------
 total_time                           2160.789444           1
 elmin                                2072.148580           1
 eddrmm                                941.823184         304
 set_dd_paw                            503.376993         307
 hamiltmu                              365.079843      154896
 raccmu_                               340.366396      154896
 m_sumb_d                              307.696344       62257
 set_charge                            266.014145         305
 setdij_                               239.821053         333
 augmentation_charge                   221.176504         306
 fft3d_mpi                             190.667674      736552
 i2                                    176.302904      149808
 phaser                                166.085542       10727
 fftbrc_mpi                            163.162631       10561
 fftbas_plan_mpi                       163.155712       10561
 i3                                    151.585194      149808
 dfftw_execute                         107.663194        7740
 eccp                                   91.630930      883857
 w1_gemv                                74.633695     2269774
 cnorma                                 64.856185      715761
 eddiag                                 56.598106         304
 eccp_nl                                43.161926      715761
 newband                                34.582170      165402
 map_backward                           30.872432       11166
 densta                                 28.090778         310
 force_and_stress                       26.705604           1
 soft_charge                            25.963456         305
 eddav                                  25.357577           5
 map_forward                            24.025473        9956
 redis_pw                               22.708124      100568
 map_scatter                            20.685366       11785
 fftwav_mpi                             20.030937     1033665
 orthch                                 19.547986         305
 overl1                                 18.997291     1134887
 fftwav                                 18.331516     1033665
 hamilt_local                           18.192886      165376
 map_gather                             18.048328       11785
 m_alltoallv_z                          15.938969       11785
 fft3d                                  12.770554     1759656
 init_acc                               11.841984           1
 kinhamil                               11.276244      725991
 m_alltoall_d                           11.089783     1895808
 w1_dscal                               10.317694     1705601
 brmix                                  10.188591         305
 w1_copy                                 9.341260     1681845
 w1_gaxpy                                9.264305     1776499
 apply_precond                           9.177300     1949304
 redis_proj                              8.979370       97722
 fftext_mpi                              8.154293      725991
 broyd                                   6.758177         305
 potlok                                  6.509543         307
 pw_charge                               6.170719      127797
 rpromu_acc                              6.070305      155304
 setup_precond                           6.022023      168096
 w1_daxpy                                5.857388     1100824
 w1_projall                              5.543027      153536
 racc0mu_acc                             5.533519      154896
 w1_dot                                  4.719783      165349
 fordep                                  4.321720           1
 strnlr                                  4.047010           1
 zhegv                                   3.440414      385063
 vhamil                                  3.185463      725991
 depsum                                  2.787476         305
 fft_gq                                  2.725225         305
 i1                                      2.648962      149808
 overl_mu                                2.479721      154896
 acc_init_cublas                         2.440336           1
 lapack                                  2.295903        5088
 brget                                   1.449544       68373
 choleski                                1.446421       10370
 rpro_isp                                1.398278         221
 fornlr                                  1.343229           1
 setg0                                   1.338677         307
 orth1                                   0.919953       56676
 rspher_all                              0.881389          14
 acc_init_cusolver                       0.815340           1
 lincom                                  0.427157       20876
 brsav                                   0.404120       19579
 overl                                   0.352705       38338
 proall                                  0.351142           1
 m_bcast_z                               0.241639        7264
 acc_cufft_makeplans                     0.129598           3
 acc_cufft_makeplan                      0.129584          19
 m_bcast_d                               0.099379       10795
 ggemm                                   0.068424        6448
 sphpro_fast                             0.059842           2
 truncate_high_frequency_w1              0.054497      728711
 pothar                                  0.046397         308
 brpre                                   0.031942         610
 stufak                                  0.019871           1
 forhar                                  0.007383           2
 strelo                                  0.006717           1
 forloc                                  0.005777           1
 strehar                                 0.005449           1
 inisym                                  0.004325           1
 chggra                                  0.001496           1
 set_dd_magatom                          0.001437         307
 vectorpot                               0.001311         306
 shift_bands_between_low_high            0.001274       10336
 fewald                                  0.000824           1
 strkin                                  0.000747           1
 brgrid                                  0.000672           1
 rsp                                     0.000366           1
 crpa_reader                             0.000026           1
 posmap                                  0.000025           2
 potlok_metagga                          0.000020         306
 rcp                                     0.000019           1
 rotate_active_occupied_orbital          0.000001           1
 redis_pw_over_bands                     0.000000           1
 ---------------------------------------------------------------
 
Profiling took   2.888441  1.957212  0.003265  0.003153 seconds
Profiling took   2.450682 seconds
