 vasp.6.3.2 27Jun22 (build Jul  3 2023 11:46:21) complex                         
 executed on    LinuxNV_CrayMPICH date 2024.04.20  23:35:52
 running on    4 total cores
 distrk:  each k-point on    4 cores,    1 groups
 distr:  one band on NCORE=   1 cores,    4 groups


--------------------------------------------------------------------------------------------------------


 INCAR:
   ADDGRID = True
   ALGO = Normal
   EDIFF = 0.0016
   ENCUT = 520.0
   IBRION = -1
   ICHARG = 0
   ISIF = 3
   ISMEAR = -5
   ISPIN = 2
   KPOINT_BSE = -1 0 0 0
   LAECHG = True
   LASPH = True
   LCHARG = True
   LELF = True
   LORBIT = 11
   LREAL = Auto
   LVHAR = True
   LWAVE = False
   MAGMOM = 16*0.6 2*7.0 14*0.6
   NELM = 1000
   NSW = 0
   PREC = accurate
   SIGMA = 0.05

 POTCAR:    PAW_PBE Li_sv 10Sep2004               
 POTCAR:    PAW_PBE Eu 23Dec2003                  
 POTCAR:    PAW_PBE Sn_d 06Sep2000                
 POTCAR:    PAW_PBE Li_sv 10Sep2004               
   SHA256 =  7e51fe1804c037e1dccc81a9c376d94d693a7559600c847f4b41960edb8ab895 Li_sv/POTCAR          
   COPYR  = (c) Copyright 10Sep2004 Georg Kresse                                                    
   COPYR  = This file is part of the software VASP. Any use, copying, and all other rights are regul
   COPYR  = If you do not have a valid VASP license, you may not use, copy or distribute this file. 
   VRHFIN =Li: 1s2s2p                                                                               
   LEXCH  = PE                                                                                      
   EATOM  =   202.7858 eV,   14.9043 Ry                                                             
                                                                                                    
   TITEL  = PAW_PBE Li_sv 10Sep2004                                                                 
   LULTRA =        F    use ultrasoft PP ?                                                          
   IUNSCR =        0    unscreen: 0-lin 1-nonlin 2-no                                               
   RPACOR =    0.000    partial core radius                                                         
   POMASS =    7.010; ZVAL   =    3.000    mass and valenz                                          
   RCORE  =    1.700    outmost cutoff radius                                                       
   RWIGS  =    2.050; RWIGS  =    1.085    wigner-seitz radius (au A)                               
   ENMAX  =  499.034; ENMIN  =  374.276 eV                                                          
   ICORE  =        2    local potential                                                             
   LCOR   =        T    correct aug charges                                                         
   LPAW   =        T    paw PP                                                                      
   EAUG   =  628.945                                                                                
   RMAX   =    1.732    core radius for proj-oper                                                   
   RAUG   =    1.300    factor for augmentation sphere                                              
   RDEP   =    1.728    radius for radial grids                                                     
   RDEPT  =    1.329    core radius for aug-charge                                                  
                                                                                                    
   Atomic configuration                                                                             
    4 entries                                                                                       
     n  l   j            E        occ.                                                              
     1  0  0.50       -51.8549   2.0000                                                             
     2  0  0.50        -2.8742   1.0000                                                             
     2  1  0.50        -1.3606   0.0000                                                             
     3  2  1.50        -1.3606   0.0000                                                             
   Description                                                                                      
     l       E           TYP  RCUT    TYP  RCUT                                                     
     0    -51.8548813     23  1.400                                                                 
     0     -2.8742052     23  1.700                                                                 
     1     -1.3605826     23  1.400                                                                 
     2     -1.3605826     23  1.400                                                                 
  local pseudopotential read in
  atomic valenz-charges read in
  non local Contribution for L=            0  read in
    real space projection operators read in
  non local Contribution for L=            0  read in
    real space projection operators read in
  non local Contribution for L=            1  read in
    real space projection operators read in
    PAW grid and wavefunctions read in
 
   number of l-projection  operators is LMAX  =            3
   number of lm-projection operators is LMMAX =            5
 
 POTCAR:    PAW_PBE Eu 23Dec2003                  
   SHA256 =  ed303d27e7c5191953f9b15539336e6f36d9037c1d2e92e80c13d733697cb93d Eu/POTCAR             
   COPYR  = (c) Copyright 23Dec2003 Georg Kresse                                                    
   COPYR  = This file is part of the software VASP. Any use, copying, and all other rights are regul
   COPYR  = If you do not have a valid VASP license, you may not use, copy or distribute this file. 
   VRHFIN =Eu : [core=Kr4d]                                                                         
   LEXCH  = PE                                                                                      
   EATOM  =  2619.8085 eV,  192.5505 Ry                                                             
                                                                                                    
   TITEL  = PAW_PBE Eu 23Dec2003                                                                    
   LULTRA =        F    use ultrasoft PP ?                                                          
   IUNSCR =        1    unscreen: 0-lin 1-nonlin 2-no                                               
   RPACOR =    2.300    partial core radius                                                         
   POMASS =  151.965; ZVAL   =   17.000    mass and valenz                                          
   RCORE  =    2.800    outmost cutoff radius                                                       
   RWIGS  =    2.800; RWIGS  =    1.482    wigner-seitz radius (au A)                               
   ENMAX  =  249.668; ENMIN  =  187.251 eV                                                          
   RCLOC  =    2.308    cutoff for local pot                                                        
   LCOR   =        T    correct aug charges                                                         
   LPAW   =        T    paw PP                                                                      
   EAUG   =  549.628                                                                                
   DEXC   =    0.000                                                                                
   RMAX   =    2.870    core radius for proj-oper                                                   
   RAUG   =    1.300    factor for augmentation sphere                                              
   RDEP   =    2.887    radius for radial grids                                                     
   RDEPT  =    2.221    core radius for aug-charge                                                  
                                                                                                    
   Atomic configuration                                                                             
   14 entries                                                                                       
     n  l   j            E        occ.                                                              
     1  0  0.50    -48354.7667   2.0000                                                             
     2  0  0.50     -7939.6472   2.0000                                                             
     2  1  1.50     -7072.6637   6.0000                                                             
     3  0  0.50     -1747.1875   2.0000                                                             
     3  1  1.50     -1477.5221   6.0000                                                             
     3  2  2.50     -1117.4686  10.0000                                                             
     4  0  0.50      -346.8682   2.0000                                                             
     4  1  1.50      -258.1962   6.0000                                                             
     4  2  2.50      -134.7724  10.0000                                                             
     5  0  0.50       -44.6510   2.0000                                                             
     6  0  0.50        -3.6227   2.0000                                                             
     5  1  1.50       -23.7639   6.0000                                                             
     5  2  2.50        -1.3130   0.0000                                                             
     4  3  2.50        -2.7310   7.0000                                                             
   Description                                                                                      
     l       E           TYP  RCUT    TYP  RCUT                                                     
     0    -44.6510453     23  2.400                                                                 
     0     -3.6226685     23  2.400                                                                 
     1    -23.7638687     23  2.400                                                                 
     1     27.2116520     23  2.400                                                                 
     2     -1.3129622     23  2.500                                                                 
     2     13.6058260     23  2.500                                                                 
     3     -2.7309948     23  2.800                                                                 
     3     -3.4014565     23  2.800                                                                 
  local pseudopotential read in
  partial core-charges read in
  partial kinetic energy density read in
  atomic valenz-charges read in
  non local Contribution for L=            0  read in
    real space projection operators read in
  non local Contribution for L=            0  read in
    real space projection operators read in
  non local Contribution for L=            1  read in
    real space projection operators read in
  non local Contribution for L=            1  read in
    real space projection operators read in
  non local Contribution for L=            2  read in
    real space projection operators read in
  non local Contribution for L=            2  read in
    real space projection operators read in
  non local Contribution for L=            3  read in
    real space projection operators read in
  non local Contribution for L=            3  read in
    real space projection operators read in
    PAW grid and wavefunctions read in
 
   number of l-projection  operators is LMAX  =            8
   number of lm-projection operators is LMMAX =           32
 
 POTCAR:    PAW_PBE Sn_d 06Sep2000                
   SHA256 =  385b269c1887fa92a2bd1b595c4ea1490c7eb92f9f3d87257729a4a813cde741 Sn_d/POTCAR           
   COPYR  = (c) Copyright 06Sep2000 Georg Kresse                                                    
   COPYR  = This file is part of the software VASP. Any use, copying, and all other rights are regul
   COPYR  = If you do not have a valid VASP license, you may not use, copy or distribute this file. 
   VRHFIN =Sn: s2p2                                                                                 
   LEXCH  = PE                                                                                      
   EATOM  =  1893.1092 eV,  139.1396 Ry                                                             
                                                                                                    
   TITEL  = PAW_PBE Sn_d 06Sep2000                                                                  
   LULTRA =        F    use ultrasoft PP ?                                                          
   IUNSCR =        1    unscreen: 0-lin 1-nonlin 2-no                                               
   RPACOR =    2.300    partial core radius                                                         
   POMASS =  118.710; ZVAL   =   14.000    mass and valenz                                          
   RCORE  =    2.500    outmost cutoff radius                                                       
   RWIGS  =    2.960; RWIGS  =    1.566    wigner-seitz radius (au A)                               
   ENMAX  =  241.083; ENMIN  =  180.812 eV                                                          
   ICORE  =        3    local potential                                                             
   LCOR   =        T    correct aug charges                                                         
   LPAW   =        T    paw PP                                                                      
   EAUG   =  439.825                                                                                
   DEXC   =    0.000                                                                                
   RMAX   =    2.560    core radius for proj-oper                                                   
   RAUG   =    1.300    factor for augmentation sphere                                              
   RDEP   =    2.659    radius for radial grids                                                     
   RDEPT  =    2.046    core radius for aug-charge                                                  
                                                                                                    
   Atomic configuration                                                                             
   12 entries                                                                                       
     n  l   j            E        occ.                                                              
     1  0  0.50    -29007.2859   2.0000                                                             
     2  0  0.50     -4378.8056   2.0000                                                             
     2  1  1.50     -3930.4293   6.0000                                                             
     3  0  0.50      -845.0264   2.0000                                                             
     3  1  1.50      -698.5725   6.0000                                                             
     3  2  2.50      -473.2839  10.0000                                                             
     4  0  0.50      -133.9036   2.0000                                                             
     4  1  1.50       -89.6752   6.0000                                                             
     4  2  2.50       -25.8375  10.0000                                                             
     5  0  0.50       -10.5484   2.0000                                                             
     5  1  0.50        -3.6940   2.0000                                                             
     4  3  2.50        -2.7416   0.0000                                                             
   Description                                                                                      
     l       E           TYP  RCUT    TYP  RCUT                                                     
     2    -25.8374624     23  2.500                                                                 
     2     -5.4423304     23  2.500                                                                 
     0    -10.5483727     23  2.500                                                                 
     0     13.6058260     23  2.500                                                                 
     1     -3.6939829     23  2.500                                                                 
     1      1.9821976     23  2.500                                                                 
     3     -1.3605826      7  2.500                                                                 
  local pseudopotential read in
  partial core-charges read in
  partial kinetic energy density read in
  atomic valenz-charges read in
  non local Contribution for L=            2  read in
    real space projection operators read in
  non local Contribution for L=            2  read in
    real space projection operators read in
  non local Contribution for L=            0  read in
    real space projection operators read in
  non local Contribution for L=            0  read in
    real space projection operators read in
  non local Contribution for L=            1  read in
    real space projection operators read in
  non local Contribution for L=            1  read in
    real space projection operators read in
    PAW grid and wavefunctions read in
 
   number of l-projection  operators is LMAX  =            6
   number of lm-projection operators is LMMAX =           18
 
 Optimization of the real space projectors (new method)

 maximal supplied QI-value         = 22.11
 optimisation between [QCUT,QGAM] = [ 11.50, 23.22] = [ 37.02,150.92] Ry 
 Optimized for a Real-space Cutoff    1.08 Angstroem

   l    n(q)    QCUT    max X(q) W(low)/X(q) W(high)/X(q)  e(spline) 
   0      7    11.497    10.506    0.36E-04    0.62E-04    0.14E-07
   0      7    11.497     8.367    0.65E-04    0.14E-03    0.28E-07
   1      7    11.497     8.983    0.21E-03    0.43E-03    0.90E-07
 Optimization of the real space projectors (new method)

 maximal supplied QI-value         = 13.42
 optimisation between [QCUT,QGAM] = [ 11.67, 23.35] = [ 38.16,152.62] Ry 
 Optimized for a Real-space Cutoff    1.63 Angstroem

   l    n(q)    QCUT    max X(q) W(low)/X(q) W(high)/X(q)  e(spline) 
   0     11    11.673    10.400    0.14E-04    0.18E-05    0.24E-07
   0     11    11.673    10.768    0.21E-04    0.32E-05    0.49E-07
   1     11    11.673     4.094    0.40E-05    0.13E-04    0.93E-07
   1     11    11.673     4.009    0.11E-04    0.46E-04    0.33E-06
   2     10    11.673    29.030    0.79E-04    0.60E-04    0.70E-06
   2     10    11.673    19.941    0.80E-04    0.60E-04    0.71E-06
   3     10    11.673    88.889    0.23E-03    0.29E-03    0.30E-06
   3     10    11.673    76.102    0.23E-03    0.30E-03    0.30E-06
 Optimization of the real space projectors (new method)

 maximal supplied QI-value         = 15.12
 optimisation between [QCUT,QGAM] = [ 11.64, 23.28] = [ 37.95,151.78] Ry 
 Optimized for a Real-space Cutoff    1.36 Angstroem

   l    n(q)    QCUT    max X(q) W(low)/X(q) W(high)/X(q)  e(spline) 
   2      9    11.641     5.880    0.49E-04    0.15E-04    0.99E-07
   2      9    11.641     7.804    0.17E-03    0.18E-03    0.15E-06
   0      9    11.641    20.557    0.10E-03    0.34E-04    0.76E-07
   0      9    11.641     9.400    0.13E-03    0.43E-04    0.95E-07
   1      9    11.641    94.178    0.25E-03    0.19E-03    0.20E-06
   1      9    11.641    56.401    0.24E-03    0.18E-03    0.20E-06
  PAW_PBE Li_sv 10Sep2004               :
 energy of atom  1       EATOM= -202.7858
 kinetic energy error for atom=    0.0130 (will be added to EATOM!!)
  PAW_PBE Eu 23Dec2003                  :
 energy of atom  2       EATOM=-2619.8085
 kinetic energy error for atom=    0.0015 (will be added to EATOM!!)
  PAW_PBE Sn_d 06Sep2000                :
 energy of atom  3       EATOM=-1893.1092
 kinetic energy error for atom=    0.0026 (will be added to EATOM!!)
 
 
 POSCAR: Li16 Eu2 Sn14
  positions in direct lattice
  No initial velocities read in
 exchange correlation table for  LEXCH =        8
   RHO(1)=    0.500       N(1)  =     2000
   RHO(2)=  100.500       N(2)  =     4000

 VTST: version 4.2, (08/11/21)

 CHAIN: initializing optimizer
 
 OPT: Using VASP Dynamics algorithm
 CHAIN: Read ICHAIN             0
 
 POSCAR: Li16 Eu2 Sn14
  positions in direct lattice
  No initial velocities read in
 


--------------------------------------------------------------------------------------------------------


 ion  position               nearest neighbor table
   1  0.977  0.023  0.250-  25 2.78  22 2.97  19 2.97  19 2.97  22 2.97
   2  0.023  0.977  0.750-  26 2.78  21 2.97  20 2.97  20 2.97  21 2.97
   3  0.000  0.000  0.000-
   4  0.000  0.000  0.500-
   5  0.757  0.243  0.094-  32 2.86  23 2.93  23 2.93  31 3.08  31 3.08
   6  0.243  0.757  0.906-  31 2.86  24 2.93  24 2.93  32 3.08  32 3.08
   7  0.243  0.757  0.594-  30 2.86  24 2.93  24 2.93  29 3.08  29 3.08
   8  0.757  0.243  0.406-  29 2.86  23 2.93  23 2.93  30 3.08  30 3.08
   9  0.892  0.108  0.518-  26 2.79  30 2.94  30 2.94  22 3.04  22 3.04
  10  0.108  0.892  0.482-  25 2.79  29 2.94  29 2.94  21 3.04  21 3.04
  11  0.108  0.892  0.018-  25 2.79  32 2.94  32 2.94  20 3.04  20 3.04
  12  0.892  0.108  0.982-  26 2.79  31 2.94  31 2.94  19 3.04  19 3.04
  13  0.545  0.455  0.125-  25 2.88  25 2.88  20 2.89  19 2.97
  14  0.455  0.545  0.875-  26 2.88  26 2.88  19 2.89  20 2.97
  15  0.455  0.545  0.625-  26 2.88  26 2.88  22 2.89  21 2.97
  16  0.545  0.455  0.375-  25 2.88  25 2.88  21 2.89  22 2.97
  17  0.858  0.142  0.250-  30 3.39  31 3.39  30 3.39  31 3.39  19 3.44  22 3.44  19 3.44  22 3.44
                            23 3.44  23 3.44
  18  0.142  0.858  0.750-  29 3.39  32 3.39  29 3.39  32 3.39  20 3.44  21 3.44  20 3.44  21 3.44
                            24 3.44  24 3.44
  19  0.435  0.565  0.121-  14 2.89  31 2.96  13 2.97   1 2.97   1 2.97  22 2.99  12 3.04  12 3.04
                            17 3.44  17 3.44
  20  0.565  0.435  0.879-  13 2.89  32 2.96  14 2.97   2 2.97   2 2.97  21 2.99  11 3.04  11 3.04
                            18 3.44  18 3.44
  21  0.565  0.435  0.621-  16 2.89  29 2.96  15 2.97   2 2.97   2 2.97  20 2.99  10 3.04  10 3.04
                            18 3.44  18 3.44
  22  0.435  0.565  0.379-  15 2.89  30 2.96  16 2.97   1 2.97   1 2.97  19 2.99   9 3.04   9 3.04
                            17 3.44  17 3.44
  23  0.263  0.737  0.250-   5 2.93   8 2.93   5 2.93   8 2.93  30 2.98  31 2.98  17 3.44  17 3.44
                            27 3.73  27 3.73
  24  0.737  0.263  0.750-   6 2.93   7 2.93   6 2.93   7 2.93  29 2.98  32 2.98  18 3.44  18 3.44
                            28 3.73  28 3.73
  25  0.080  0.920  0.250-   1 2.78  10 2.79  11 2.79  16 2.88  13 2.88  13 2.88  16 2.88  27 3.07
                            27 3.07
  26  0.920  0.080  0.750-   2 2.78   9 2.79  12 2.79  15 2.88  14 2.88  14 2.88  15 2.88  28 3.07
                            28 3.07
  27  0.655  0.345  0.250-  25 3.07  25 3.07  32 3.44  29 3.44  23 3.73  23 3.73
  28  0.345  0.655  0.750-  26 3.07  26 3.07  31 3.44  30 3.44  24 3.73  24 3.73
  29  0.670  0.330  0.545-   8 2.86  10 2.94  10 2.94  21 2.96  24 2.98   7 3.08   7 3.08  18 3.39
                            18 3.39  27 3.44
  30  0.330  0.670  0.455-   7 2.86   9 2.94   9 2.94  22 2.96  23 2.98   8 3.08   8 3.08  17 3.39
                            17 3.39  28 3.44
  31  0.330  0.670  0.045-   6 2.86  12 2.94  12 2.94  19 2.96  23 2.98   5 3.08   5 3.08  17 3.39
                            17 3.39  28 3.44
  32  0.670  0.330  0.955-   5 2.86  11 2.94  11 2.94  20 2.96  24 2.98   6 3.08   6 3.08  18 3.39
                            18 3.39  27 3.44
 
  LATTYP: Found a base centered orthorhombic cell.
 ALAT       =     4.6075660000
 B/A-ratio  =     5.8656466343
 C/A-ratio  =     2.5099683868
  
  Lattice vectors:
  
 A1 = (   2.3037830000, -13.5131770000,   0.0000000000)
 A2 = (   2.3037830000,  13.5131770000,   0.0000000000)
 A3 = (   0.0000000000,   0.0000000000,  11.5648450000)


Analysis of symmetry for initial positions (statically):
=====================================================================
 Subroutine PRICEL returns:
 Original cell was already a primitive cell.
 

 Routine SETGRP: Setting up the symmetry group for a 
 base centered orthorhombic supercell.


 Subroutine GETGRP returns: Found  8 space group operations
 (whereof  4 operations were pure point group operations)
 out of a pool of  8 trial point group operations.


The static configuration has the point symmetry C_2h.
 The point group associated with its full space group is D_2h.


Analysis of symmetry for dynamics (positions and initial velocities):
=====================================================================
 Subroutine PRICEL returns:
 Original cell was already a primitive cell.
 

 Routine SETGRP: Setting up the symmetry group for a 
 base centered orthorhombic supercell.


 Subroutine GETGRP returns: Found  8 space group operations
 (whereof  4 operations were pure point group operations)
 out of a pool of  8 trial point group operations.


The dynamic configuration has the point symmetry C_2h.
 The point group associated with its full space group is D_2h.


Analysis of structural, dynamic, and magnetic symmetry:
=====================================================================
 Subroutine PRICEL returns:
 Original cell was already a primitive cell.
 

 Routine SETGRP: Setting up the symmetry group for a 
 base centered orthorhombic supercell.


 Subroutine GETGRP returns: Found  8 space group operations
 (whereof  4 operations were pure point group operations)
 out of a pool of  8 trial point group operations.


The overall configuration has the point symmetry C_2h.
 The point group associated with its full space group is D_2h.


 Subroutine INISYM returns: Found  8 space group operations
 (whereof  4 operations are pure point group operations),
 and found     1 'primitive' translations


----------------------------------------------------------------------------------------

                                     Primitive cell                                     

  volume of cell :     720.0603

  direct lattice vectors                    reciprocal lattice vectors
     2.303783000-13.513177000  0.000000000     0.217034330 -0.037000921  0.000000000
     2.303783000 13.513177000  0.000000000     0.217034330  0.037000921 -0.000000000
     0.000000000  0.000000000 11.564845000    -0.000000000  0.000000000  0.086468950

  length of vectors
    13.708149720 13.708149720 11.564845000     0.220165775  0.220165775  0.086468950

  position of ions in fractional coordinates (direct lattice)
     0.976805000  0.023195000  0.250000000
     0.023195000  0.976805000  0.750000000
     0.000000000  0.000000000  0.000000000
     0.000000000  0.000000000  0.500000000
     0.757126000  0.242874000  0.094380000
     0.242874000  0.757126000  0.905620000
     0.242874000  0.757126000  0.594380000
     0.757126000  0.242874000  0.405620000
     0.891731000  0.108269000  0.518149000
     0.108269000  0.891731000  0.481851000
     0.108269000  0.891731000  0.018149000
     0.891731000  0.108269000  0.981851000
     0.544703000  0.455297000  0.124927000
     0.455297000  0.544703000  0.875073000
     0.455297000  0.544703000  0.624927000
     0.544703000  0.455297000  0.375073000
     0.858173000  0.141827000  0.250000000
     0.141827000  0.858173000  0.750000000
     0.434813000  0.565187000  0.120643000
     0.565187000  0.434813000  0.879357000
     0.565187000  0.434813000  0.620643000
     0.434813000  0.565187000  0.379357000
     0.263459000  0.736541000  0.250000000
     0.736541000  0.263459000  0.750000000
     0.079801000  0.920199000  0.250000000
     0.920199000  0.079801000  0.750000000
     0.654986000  0.345014000  0.250000000
     0.345014000  0.654986000  0.750000000
     0.669939000  0.330061000  0.545182000
     0.330061000  0.669939000  0.454818000
     0.330061000  0.669939000  0.045182000
     0.669939000  0.330061000  0.954818000

  ion indices of the primitive-cell ions
   primitive index   ion index
                 1           1
                 2           2
                 3           3
                 4           4
                 5           5
                 6           6
                 7           7
                 8           8
                 9           9
                10          10
                11          11
                12          12
                13          13
                14          14
                15          15
                16          16
                17          17
                18          18
                19          19
                20          20
                21          21
                22          22
                23          23
                24          24
                25          25
                26          26
                27          27
                28          28
                29          29
                30          30
                31          31
                32          32

----------------------------------------------------------------------------------------

 
 
 KPOINTS: Kpoints from vasprun.xml                

Automatic generation of k-mesh.
 Grid dimensions read from file:
 generate k-points for:    3    3    3

 Generating k-lattice:

  Cartesian coordinates                     Fractional coordinates (reciprocal lattice)
     0.072344777 -0.012333640  0.000000000     0.333333333  0.000000000  0.000000000
     0.072344777  0.012333640 -0.000000000     0.000000000  0.333333333  0.000000000
    -0.000000000  0.000000000  0.028822983     0.000000000  0.000000000  0.333333333

  Length of vectors
     0.073388592  0.073388592  0.028822983

  Shift w.r.t. Gamma in fractional coordinates (k-lattice)
     0.000000000  0.000000000  0.000000000

 TETIRR: Found     37 inequivalent tetrahedra from      162
 
 Subroutine IBZKPT returns following result:
 ===========================================
 
 Found      8 irreducible k-points:
 
 Following reciprocal coordinates:
            Coordinates               Weight
  0.000000  0.000000  0.000000      1.000000
  0.333333  0.000000  0.000000      4.000000
  0.333333  0.333333  0.000000      2.000000
 -0.333333  0.333333  0.000000      2.000000
  0.000000  0.000000  0.333333      2.000000
  0.333333  0.000000  0.333333      8.000000
  0.333333  0.333333  0.333333      4.000000
 -0.333333  0.333333  0.333333      4.000000
 
 Following cartesian coordinates:
            Coordinates               Weight
  0.000000  0.000000  0.000000      1.000000
  0.072345 -0.012334  0.000000      4.000000
  0.144690  0.000000  0.000000      2.000000
  0.000000  0.024667  0.000000      2.000000
  0.000000  0.000000  0.028823      2.000000
  0.072345 -0.012334  0.028823      8.000000
  0.144690  0.000000  0.028823      4.000000
  0.000000  0.024667  0.028823      4.000000
 


--------------------------------------------------------------------------------------------------------




 Dimension of arrays:
   k-points           NKPTS =      8   k-points in BZ     NKDIM =      8   number of bands    NBANDS=    184
   number of dos      NEDOS =    301   number of ions     NIONS =     32
   non local maximal  LDIM  =      8   non local SUM 2l+1 LMDIM =     32
   total plane-waves  NPLWV = ******
   max r-space proj   IRMAX =  26361   max aug-charges    IRDMAX= 666876
   dimension x,y,z NGX =   108 NGY =  108 NGZ =   90
   dimension x,y,z NGXF=   216 NGYF=  216 NGZF=  180
   support grid    NGXF=   432 NGYF=  432 NGZF=  360
   ions per type =              16   2  14
   NGX,Y,Z   is equivalent  to a cutoff of  13.10, 13.10, 12.94 a.u.
   NGXF,Y,Z  is equivalent  to a cutoff of  26.20, 26.20, 25.88 a.u.

 SYSTEM =  unknown system                          
 POSCAR =  Li16 Eu2 Sn14                           

 Startparameter for this run:
   NWRITE =      2    write-flag & timer
   PREC   = accura    normal or accurate (medium, high low for compatibility)
   ISTART =      0    job   : 0-new  1-cont  2-samecut
   ICHARG =      0    charge: 1-file 2-atom 10-const
   ISPIN  =      2    spin polarized calculation?
   LNONCOLLINEAR =      F non collinear calculations
   LSORBIT =      F    spin-orbit coupling
   INIWAV =      1    electr: 0-lowe 1-rand  2-diag
   LASPH  =      T    aspherical Exc in radial PAW
 Electronic Relaxation 1
   ENCUT  =  520.0 eV  38.22 Ry    6.18 a.u.  25.49 25.49 21.50*2*pi/ulx,y,z
   ENINI  =  520.0     initial cutoff
   ENAUG  =  628.9 eV  augmentation charge cutoff
   NELM   =   1000;   NELMIN=  2; NELMDL= -5     # of ELM steps 
   EDIFF  = 0.2E-02   stopping-criterion for ELM
   LREAL  =      T    real-space projection
   NLSPLINE    = F    spline interpolate recip. space projectors
   LCOMPAT=      F    compatible to vasp.4.4
   GGA_COMPAT  = T    GGA compatible to vasp.4.4-vasp.4.6
   LMAXPAW     = -100 max onsite density
   LMAXMIX     =    2 max onsite mixed and CHGCAR
   VOSKOWN=      0    Vosko Wilk Nusair interpolation
   ROPT   =   -0.00025  -0.00025  -0.00025
 Ionic relaxation
   EDIFFG = 0.2E-01   stopping-criterion for IOM
   NSW    =      0    number of steps for IOM
   NBLOCK =      1;   KBLOCK =      1    inner block; outer block 
   IBRION =     -1    ionic relax: 0-MD 1-quasi-New 2-CG
   NFREE  =      0    steps in history (QN), initial steepest desc. (CG)
   ISIF   =      3    stress and relaxation
   IWAVPR =     10    prediction:  0-non 1-charg 2-wave 3-comb
   ISYM   =      2    0-nonsym 1-usesym 2-fastsym
   LCORR  =      T    Harris-Foulkes like correction to forces

   POTIM  = 0.5000    time-step for ionic-motion
   TEIN   =    0.0    initial temperature
   TEBEG  =    0.0;   TEEND  =   0.0 temperature during run
   SMASS  =  -3.00    Nose mass-parameter (am)
   estimated Nose-frequenzy (Omega)   =  0.10E-29 period in steps = 0.13E+47 mass=  -0.429E-26a.u.
   SCALEE = 1.0000    scale energy and forces
   NPACO  =    256;   APACO  = 10.0  distance and # of slots for P.C.
   PSTRESS=    0.0 pullay stress

  Mass of Ions in am
   POMASS =   7.01151.97118.71
  Ionic Valenz
   ZVAL   =   3.00 17.00 14.00
  Atomic Wigner-Seitz radii
   RWIGS  =  -1.00 -1.00 -1.00
  virtual crystal weights 
   VCA    =   1.00  1.00  1.00
   NELECT =     278.0000    total number of electrons
   NUPDOWN=      -1.0000    fix difference up-down

 DOS related values:
   EMIN   =  10.00;   EMAX   =-10.00  energy-range for DOS
   EFERMI =   0.00
   ISMEAR =    -5;   SIGMA  =   0.05  broadening in eV -4-tet -1-fermi 0-gaus

 Electronic relaxation 2 (details)
   IALGO  =     38    algorithm
   LDIAG  =      T    sub-space diagonalisation (order eigenvalues)
   LSUBROT=      F    optimize rotation matrix (better conditioning)
   TURBO    =      0    0=normal 1=particle mesh
   IRESTART =      0    0=no restart 2=restart with 2 vectors
   NREBOOT  =      0    no. of reboots
   NMIN     =      0    reboot dimension
   EREF     =   0.00    reference energy to select bands
   IMIX   =      4    mixing-type and parameters
     AMIX     =   0.40;   BMIX     =  1.00
     AMIX_MAG =   1.60;   BMIX_MAG =  1.00
     AMIN     =   0.10
     WC   =   100.;   INIMIX=   1;  MIXPRE=   1;  MAXMIX= -45

 Intra band minimization:
   WEIMIN = 0.0000     energy-eigenvalue tresh-hold
   EBREAK =  0.22E-05  absolut break condition
   DEPER  =   0.30     relativ break condition  

   TIME   =   0.40     timestep for ELM

  volume/ion in A,a.u.               =      22.50       151.85
  Fermi-wavevector in a.u.,A,eV,Ry     =   1.192066  2.252677 19.334156  1.421020
  Thomas-Fermi vector in A             =   2.328113
 
 Write flags
   LWAVE        =      F    write WAVECAR
   LDOWNSAMPLE  =      F    k-point downsampling of WAVECAR
   LCHARG       =      T    write CHGCAR
   LVTOT        =      F    write LOCPOT, total local potential
   LVHAR        =      T    write LOCPOT, Hartree potential only
   LELF         =      T    write electronic localiz. function (ELF)
   LORBIT       =     11    0 simple, 1 ext, 2 COOP (PROOUT), +10 PAW based schemes


 Dipole corrections
   LMONO  =      F    monopole corrections only (constant potential shift)
   LDIPOL =      F    correct potential (dipole corrections)
   IDIPOL =      0    1-x, 2-y, 3-z, 4-all directions 
   EPSILON=  1.0000000 bulk dielectric constant

 Exchange correlation treatment:
   GGA     =    --    GGA type
   LEXCH   =     8    internal setting for exchange type
   LIBXC   =     F    Libxc                    
   VOSKOWN =     0    Vosko Wilk Nusair interpolation
   LHFCALC =     F    Hartree Fock is set to
   LHFONE  =     F    Hartree Fock one center treatment
   AEXX    =    0.0000 exact exchange contribution

 Linear response parameters
   LEPSILON=     F    determine dielectric tensor
   LRPA    =     F    only Hartree local field effects (RPA)
   LNABLA  =     F    use nabla operator in PAW spheres
   LVEL    =     F    velocity operator in full k-point grid
   CSHIFT  =0.1000    complex shift for real part using Kramers Kronig
   OMEGAMAX=  -1.0    maximum frequency
   DEG_THRESHOLD= 0.2000000E-02 threshold for treating states as degnerate
   RTIME   =   -0.100 relaxation time in fs
  (WPLASMAI=    0.000 imaginary part of plasma frequency in eV, 0.658/RTIME)
   DFIELD  = 0.0000000 0.0000000 0.0000000 field for delta impulse in time
 
  Optional k-point grid parameters
   LKPOINTS_OPT  =     F    use optional k-point grid
   KPOINTS_OPT_MODE=     1    mode for optional k-point grid
 
 Orbital magnetization related:
   ORBITALMAG=     F  switch on orbital magnetization
   LCHIMAG   =     F  perturbation theory with respect to B field
   DQ        =  0.001000  dq finite difference perturbation B field
   LLRAUG    =     F  two centre corrections for induced B field



--------------------------------------------------------------------------------------------------------


 Static calculation
 charge density and potential will be updated during run
 spin polarized calculation
 Variant of blocked Davidson
 Davidson routine will perform the subspace rotation
 perform sub-space diagonalisation
    after iterative eigenvector-optimisation
 modified Broyden-mixing scheme, WC =      100.0
 initial mixing is a Kerker type mixing with AMIX =  0.4000 and BMIX =      1.0000
 Hartree-type preconditioning will be used
 using additional bands            45
 real space projection scheme for non local part
 use partial core corrections
 calculate Harris-corrections to forces 
   (improved forces if not selfconsistent)
 use gradient corrections 
 use of overlap-Matrix (Vanderbilt PP)
 Fermi weights with tetrahedron method with Bloechl corrections


--------------------------------------------------------------------------------------------------------


  energy-cutoff  :      520.00
  volume of cell :      720.06
      direct lattice vectors                 reciprocal lattice vectors
     2.303783000-13.513177000  0.000000000     0.217034330 -0.037000921  0.000000000
     2.303783000 13.513177000  0.000000000     0.217034330  0.037000921 -0.000000000
     0.000000000  0.000000000 11.564845000    -0.000000000  0.000000000  0.086468950

  length of vectors
    13.708149720 13.708149720 11.564845000     0.220165775  0.220165775  0.086468950


 
 k-points in units of 2pi/SCALE and weight: Kpoints from vasprun.xml                
   0.00000000  0.00000000  0.00000000       0.037
   0.07234478 -0.01233364  0.00000000       0.148
   0.14468955 -0.00000000  0.00000000       0.074
   0.00000000  0.02466728  0.00000000       0.074
   0.00000000  0.00000000  0.02882298       0.074
   0.07234478 -0.01233364  0.02882298       0.296
   0.14468955 -0.00000000  0.02882298       0.148
   0.00000000  0.02466728  0.02882298       0.148
 
 k-points in reciprocal lattice and weights: Kpoints from vasprun.xml                
   0.00000000  0.00000000  0.00000000       0.037
   0.33333333  0.00000000  0.00000000       0.148
   0.33333333  0.33333333  0.00000000       0.074
  -0.33333333  0.33333333  0.00000000       0.074
   0.00000000  0.00000000  0.33333333       0.074
   0.33333333  0.00000000  0.33333333       0.296
   0.33333333  0.33333333  0.33333333       0.148
  -0.33333333  0.33333333  0.33333333       0.148
 
 position of ions in fractional coordinates (direct lattice) 
   0.97680500  0.02319500  0.25000000
   0.02319500  0.97680500  0.75000000
   0.00000000  0.00000000  0.00000000
   0.00000000  0.00000000  0.50000000
   0.75712600  0.24287400  0.09438000
   0.24287400  0.75712600  0.90562000
   0.24287400  0.75712600  0.59438000
   0.75712600  0.24287400  0.40562000
   0.89173100  0.10826900  0.51814900
   0.10826900  0.89173100  0.48185100
   0.10826900  0.89173100  0.01814900
   0.89173100  0.10826900  0.98185100
   0.54470300  0.45529700  0.12492700
   0.45529700  0.54470300  0.87507300
   0.45529700  0.54470300  0.62492700
   0.54470300  0.45529700  0.37507300
   0.85817300  0.14182700  0.25000000
   0.14182700  0.85817300  0.75000000
   0.43481300  0.56518700  0.12064300
   0.56518700  0.43481300  0.87935700
   0.56518700  0.43481300  0.62064300
   0.43481300  0.56518700  0.37935700
   0.26345900  0.73654100  0.25000000
   0.73654100  0.26345900  0.75000000
   0.07980100  0.92019900  0.25000000
   0.92019900  0.07980100  0.75000000
   0.65498600  0.34501400  0.25000000
   0.34501400  0.65498600  0.75000000
   0.66993900  0.33006100  0.54518200
   0.33006100  0.66993900  0.45481800
   0.33006100  0.66993900  0.04518200
   0.66993900  0.33006100  0.95481800
 
 position of ions in cartesian coordinates  (Angst):
   2.30378300-12.88630072  2.89121125
   2.30378300 12.88630072  8.67363375
   0.00000000  0.00000000  0.00000000
   0.00000000  0.00000000  5.78242250
   2.30378300 -6.94917830  1.09149007
   2.30378300  6.94917830 10.47335493
   2.30378300  6.94917830  6.87391257
   2.30378300 -6.94917830  4.69093243
   2.30378300-10.58706068  5.99231287
   2.30378300 10.58706068  5.57253213
   2.30378300 10.58706068  0.20989037
   2.30378300-10.58706068 11.35495463
   2.30378300 -1.20815910  1.44476139
   2.30378300  1.20815910 10.12008361
   2.30378300  1.20815910  7.22718389
   2.30378300 -1.20815910  4.33766111
   2.30378300 -9.68011029  2.89121125
   2.30378300  9.68011029  8.67363375
   2.30378300  1.76176694  1.39521760
   2.30378300 -1.76176694 10.16962740
   2.30378300 -1.76176694  7.17764010
   2.30378300  1.76176694  4.38720490
   2.30378300  6.39284080  2.89121125
   2.30378300 -6.39284080  8.67363375
   2.30378300 11.35644692  2.89121125
   2.30378300-11.35644692  8.67363375
   2.30378300 -4.18870650  2.89121125
   2.30378300  4.18870650  8.67363375
   2.30378300 -4.59283157  6.30494533
   2.30378300  4.59283157  5.25989967
   2.30378300  4.59283157  0.52252283
   2.30378300 -4.59283157 11.04232217
 


--------------------------------------------------------------------------------------------------------


 k-point   1 :   0.0000 0.0000 0.0000  plane waves:   19477
 k-point   2 :   0.3333 0.0000 0.0000  plane waves:   19383
 k-point   3 :   0.3333 0.3333 0.0000  plane waves:   19382
 k-point   4 :  -0.3333 0.3333 0.0000  plane waves:   19406
 k-point   5 :   0.0000 0.0000 0.3333  plane waves:   19393
 k-point   6 :   0.3333 0.0000 0.3333  plane waves:   19382
 k-point   7 :   0.3333 0.3333 0.3333  plane waves:   19369
 k-point   8 :  -0.3333 0.3333 0.3333  plane waves:   19426

 maximum and minimum number of plane-waves per node :     19477    19369

 maximum number of plane-waves:     19477
 maximum index in each direction: 
   IXMAX=   25   IYMAX=   25   IZMAX=   21
   IXMIN=  -25   IYMIN=  -25   IZMIN=  -21


 serial   3D FFT for wavefunctions
 parallel 3D FFT for charge:
    minimum data exchange during FFTs selected (reduces bandwidth)


 total amount of memory used by VASP MPI-rank0   916819. kBytes
=======================================================================

   base      :      30000. kBytes
   nonlr-proj:      67117. kBytes
   fftplans  :     311707. kBytes
   grid      :     270791. kBytes
   one-center:       3145. kBytes
   wavefun   :     234059. kBytes
 
     INWAV:  cpu time      0.0001: real time      0.0003
 Broyden mixing: mesh for mixing (old mesh)
   NGX = 51   NGY = 51   NGZ = 43
  (NGX  =216   NGY  =216   NGZ  =180)
  gives a total of 111843 points

 charge density for first step will be calculated from the start-wavefunctions


--------------------------------------------------------------------------------------------------------


 Maximum index for non-local projection operator         25480
 Maximum index for augmentation-charges        161731 (set IRDMAX)


--------------------------------------------------------------------------------------------------------


 initial charge from wavefunction
 First call to EWALD:  gamma=   0.198
 Maximum number of real-space cells 5x 5x 2
 Maximum number of reciprocal cells 4x 4x 3

    FEWALD:  cpu time      0.0054: real time      0.0054


--------------------------------------- Iteration      1(   1)  ---------------------------------------


    POTLOK:  cpu time      0.1598: real time      0.2116
    SETDIJ:  cpu time      4.1799: real time      4.1825
     EDDAV:  cpu time      5.7996: real time      5.8382
 BZINTS: Fermi energy:   37.366999;  278.000000 electrons
         Band energy:-0.214293E+05;  BLOECHL correction:   -0.335481
       DOS:  cpu time      0.0555: real time      0.0555
    --------------------------------------------
      LOOP:  cpu time     10.1949: real time     10.2878

 eigenvalue-minimisations  :  8688
 total energy-change (2. order) :-0.6414760E+04  (-0.2679468E+05)
 number of electron     278.0000001 magnetization      -0.0000000
 augmentation part       25.0274306 magnetization      -0.0317863

 Free energy of the ion-electron system (eV)
  ---------------------------------------------------
  alpha Z        PSCENC =       711.25427086
  Ewald energy   TEWEN  =    -20872.43096853
  -Hartree energ DENC   =      -322.08771889
  -exchange      EXHF   =         0.00000000
  -V(xc)+E(xc)   XCENC  =       700.91453038
  PAW double counting   =    317034.78794652  -317225.35011191
  entropy T*S    EENTRO =         0.00000000
  eigenvalues    EBANDS =    -21429.32039990
  atomic energy  EATOM  =     34987.47230370
  Solvation  Ediel_sol  =         0.00000000
  ---------------------------------------------------
  free energy    TOTEN  =     -6414.76014777 eV

  energy without entropy =    -6414.76014777  energy(sigma->0) =    -6414.76014777


--------------------------------------------------------------------------------------------------------




--------------------------------------- Iteration      1(   2)  ---------------------------------------


     EDDAV:  cpu time      5.2123: real time      5.2160
 BZINTS: Fermi energy:  -30.861175;  278.000000 electrons
         Band energy:-0.286354E+05;  BLOECHL correction:   -0.140326
       DOS:  cpu time      0.0463: real time      0.0463
    --------------------------------------------
      LOOP:  cpu time      5.2586: real time      5.2623

 eigenvalue-minimisations  :  7672
 total energy-change (2. order) :-0.7206060E+04  (-0.6495510E+04)
 number of electron     278.0000001 magnetization      -0.0000000
 augmentation part       25.0274306 magnetization      -0.0317863

 Free energy of the ion-electron system (eV)
  ---------------------------------------------------
  alpha Z        PSCENC =       711.25427086
  Ewald energy   TEWEN  =    -20872.43096853
  -Hartree energ DENC   =      -322.08771889
  -exchange      EXHF   =         0.00000000
  -V(xc)+E(xc)   XCENC  =       700.91453038
  PAW double counting   =    317034.78794652  -317225.35011191
  entropy T*S    EENTRO =         0.00000000
  eigenvalues    EBANDS =    -28635.38062361
  atomic energy  EATOM  =     34987.47230370
  Solvation  Ediel_sol  =         0.00000000
  ---------------------------------------------------
  free energy    TOTEN  =    -13620.82037148 eV

  energy without entropy =   -13620.82037148  energy(sigma->0) =   -13620.82037148


--------------------------------------------------------------------------------------------------------




--------------------------------------- Iteration      1(   3)  ---------------------------------------


     EDDAV:  cpu time      7.2024: real time      7.2084
 BZINTS: Fermi energy:  -52.701204;  278.000000 electrons
         Band energy:-0.318099E+05;  BLOECHL correction:   -0.102468
       DOS:  cpu time      0.0506: real time      0.0506
    --------------------------------------------
      LOOP:  cpu time      7.2530: real time      7.2590

 eigenvalue-minimisations  : 11392
 total energy-change (2. order) :-0.3174476E+04  (-0.2762758E+04)
 number of electron     278.0000001 magnetization      -0.0000000
 augmentation part       25.0274306 magnetization      -0.0317863

 Free energy of the ion-electron system (eV)
  ---------------------------------------------------
  alpha Z        PSCENC =       711.25427086
  Ewald energy   TEWEN  =    -20872.43096853
  -Hartree energ DENC   =      -322.08771889
  -exchange      EXHF   =         0.00000000
  -V(xc)+E(xc)   XCENC  =       700.91453038
  PAW double counting   =    317034.78794652  -317225.35011191
  entropy T*S    EENTRO =         0.00000000
  eigenvalues    EBANDS =    -31809.85666977
  atomic energy  EATOM  =     34987.47230370
  Solvation  Ediel_sol  =         0.00000000
  ---------------------------------------------------
  free energy    TOTEN  =    -16795.29641763 eV

  energy without entropy =   -16795.29641763  energy(sigma->0) =   -16795.29641763


--------------------------------------------------------------------------------------------------------




--------------------------------------- Iteration      1(   4)  ---------------------------------------


     EDDAV:  cpu time      6.4854: real time      6.4897
 BZINTS: Fermi energy:  -60.265581;  278.000000 electrons
         Band energy:-0.328934E+05;  BLOECHL correction:   -0.001994
       DOS:  cpu time      0.0444: real time      0.0444
    --------------------------------------------
      LOOP:  cpu time      6.5298: real time      6.5341

 eigenvalue-minimisations  : 10040
 total energy-change (2. order) :-0.1083593E+04  (-0.1019373E+04)
 number of electron     278.0000001 magnetization      -0.0000000
 augmentation part       25.0274306 magnetization      -0.0317863

 Free energy of the ion-electron system (eV)
  ---------------------------------------------------
  alpha Z        PSCENC =       711.25427086
  Ewald energy   TEWEN  =    -20872.43096853
  -Hartree energ DENC   =      -322.08771889
  -exchange      EXHF   =         0.00000000
  -V(xc)+E(xc)   XCENC  =       700.91453038
  PAW double counting   =    317034.78794652  -317225.35011191
  entropy T*S    EENTRO =         0.00000000
  eigenvalues    EBANDS =    -32893.44951577
  atomic energy  EATOM  =     34987.47230370
  Solvation  Ediel_sol  =         0.00000000
  ---------------------------------------------------
  free energy    TOTEN  =    -17878.88926363 eV

  energy without entropy =   -17878.88926363  energy(sigma->0) =   -17878.88926363


--------------------------------------------------------------------------------------------------------




--------------------------------------- Iteration      1(   5)  ---------------------------------------


     EDDAV:  cpu time      6.8526: real time      6.8566
 BZINTS: Fermi energy:  -62.931793;  278.000000 electrons
         Band energy:-0.331118E+05;  BLOECHL correction:   -0.031401
       DOS:  cpu time      0.0493: real time      0.0493
    CHARGE:  cpu time      1.1517: real time      1.1522
    MIXING:  cpu time      0.0175: real time      0.0175
    --------------------------------------------
      LOOP:  cpu time      8.0711: real time      8.0756

 eigenvalue-minimisations  : 10760
 total energy-change (2. order) :-0.2183084E+03  (-0.1490977E+03)
 number of electron     278.0000004 magnetization       0.2076105
 augmentation part       79.5241817 magnetization      -0.7147967

 Broyden mixing:
  rms(total) = 0.16031E+04    rms(broyden)= 0.16031E+04
  rms(prec ) = 0.16038E+04
  weight for this iteration     100.00

 Free energy of the ion-electron system (eV)
  ---------------------------------------------------
  alpha Z        PSCENC =       711.25427086
  Ewald energy   TEWEN  =    -20872.43096853
  -Hartree energ DENC   =      -322.08771889
  -exchange      EXHF   =         0.00000000
  -V(xc)+E(xc)   XCENC  =       700.91453038
  PAW double counting   =    317034.78794652  -317225.35011191
  entropy T*S    EENTRO =         0.00000000
  eigenvalues    EBANDS =    -33111.75788669
  atomic energy  EATOM  =     34987.47230370
  Solvation  Ediel_sol  =         0.00000000
  ---------------------------------------------------
  free energy    TOTEN  =    -18097.19763455 eV

  energy without entropy =   -18097.19763455  energy(sigma->0) =   -18097.19763455


--------------------------------------------------------------------------------------------------------




--------------------------------------- Iteration      1(   6)  ---------------------------------------


    POTLOK:  cpu time      0.0307: real time      0.0319
    SETDIJ:  cpu time      4.1781: real time      4.1800
     EDDAV:  cpu time      5.9035: real time      5.9072
 BZINTS: Fermi energy:   -8.623726;  278.000000 electrons
         Band energy:-0.126373E+05;  BLOECHL correction:   -0.407295
       DOS:  cpu time      0.0544: real time      0.0544
    CHARGE:  cpu time      1.1540: real time      1.1547
    MIXING:  cpu time      0.0199: real time      0.0945
    --------------------------------------------
      LOOP:  cpu time     11.3406: real time     11.4227

 eigenvalue-minimisations  :  8976
 total energy-change (2. order) : 0.1439799E+05  (-0.3462732E+04)
 number of electron     278.0000005 magnetization       0.2669550
 augmentation part      103.6535854 magnetization      -0.2770578

 Broyden mixing:
  rms(total) = 0.64103E+03    rms(broyden)= 0.64103E+03
  rms(prec ) = 0.64138E+03
  weight for this iteration     100.00

 eigenvalues of (default mixing * dielectric matrix)
  average eigenvalue GAMMA=   0.7172
  0.7172

 Free energy of the ion-electron system (eV)
  ---------------------------------------------------
  alpha Z        PSCENC =       711.25427086
  Ewald energy   TEWEN  =    -20872.43096853
  -Hartree energ DENC   =     -6232.02907927
  -exchange      EXHF   =         0.00000000
  -V(xc)+E(xc)   XCENC  =       970.24611209
  PAW double counting   = 199106454.71204078******************
  entropy T*S    EENTRO =         0.00000000
  eigenvalues    EBANDS =    -12637.30153481
  atomic energy  EATOM  =     34987.47230370
  Solvation  Ediel_sol  =         0.00000000
  ---------------------------------------------------
  free energy    TOTEN  =     -3699.21092944 eV

  energy without entropy =    -3699.21092944  energy(sigma->0) =    -3699.21092944


--------------------------------------------------------------------------------------------------------




--------------------------------------- Iteration      1(   7)  ---------------------------------------


    POTLOK:  cpu time      0.0317: real time      0.0322
    SETDIJ:  cpu time      4.1440: real time      4.1457
     EDDAV:  cpu time      6.3275: real time      6.3311
 BZINTS: Fermi energy:   -7.793836;  278.000000 electrons
         Band energy:-0.920087E+04;  BLOECHL correction:   -0.346155
       DOS:  cpu time      0.0536: real time      0.0536
    CHARGE:  cpu time      1.1515: real time      1.1522
    MIXING:  cpu time      0.0202: real time      0.0202
    --------------------------------------------
      LOOP:  cpu time     11.7285: real time     11.7350

 eigenvalue-minimisations  :  9816
 total energy-change (2. order) : 0.2050618E+04  (-0.1376757E+04)
 number of electron     278.0000008 magnetization       0.2231597
 augmentation part      148.7806059 magnetization       0.0537077

 Broyden mixing:
  rms(total) = 0.46632E+03    rms(broyden)= 0.46632E+03
  rms(prec ) = 0.46664E+03
  weight for this iteration     100.00

 eigenvalues of (default mixing * dielectric matrix)
  average eigenvalue GAMMA=   0.6422
  0.6422  0.6422

 Free energy of the ion-electron system (eV)
  ---------------------------------------------------
  alpha Z        PSCENC =       711.25427086
  Ewald energy   TEWEN  =    -20872.43096853
  -Hartree energ DENC   =     -7400.03113788
  -exchange      EXHF   =         0.00000000
  -V(xc)+E(xc)   XCENC  =      1019.70880871
  PAW double counting   = 108363959.36146419******************
  entropy T*S    EENTRO =         0.00000000
  eigenvalues    EBANDS =     -9200.87143618
  atomic energy  EATOM  =     34987.47230370
  Solvation  Ediel_sol  =         0.00000000
  ---------------------------------------------------
  free energy    TOTEN  =     -1648.59278149 eV

  energy without entropy =    -1648.59278149  energy(sigma->0) =    -1648.59278149


--------------------------------------------------------------------------------------------------------




--------------------------------------- Iteration      1(   8)  ---------------------------------------


    POTLOK:  cpu time      0.0314: real time      0.0324
    SETDIJ:  cpu time      4.1707: real time      4.1729
     EDDAV:  cpu time      6.2594: real time      6.2630
 BZINTS: Fermi energy:   -0.827079;  278.000000 electrons
         Band energy:-0.790002E+04;  BLOECHL correction:   -0.106792
       DOS:  cpu time      0.0491: real time      0.0491
    CHARGE:  cpu time      1.1532: real time      1.1539
    MIXING:  cpu time      0.0219: real time      0.0219
    --------------------------------------------
      LOOP:  cpu time     11.6857: real time     11.6933

 eigenvalue-minimisations  :  9624
 total energy-change (2. order) : 0.7555725E+01  (-0.1072508E+04)
 number of electron     278.0000006 magnetization       0.2744274
 augmentation part      115.2408958 magnetization      -0.3815892

 Broyden mixing:
  rms(total) = 0.39751E+03    rms(broyden)= 0.39751E+03
  rms(prec ) = 0.39772E+03
  weight for this iteration     100.00

 eigenvalues of (default mixing * dielectric matrix)
  average eigenvalue GAMMA=   0.5574
  0.6080  0.6080  0.4561

 Free energy of the ion-electron system (eV)
  ---------------------------------------------------
  alpha Z        PSCENC =       711.25427086
  Ewald energy   TEWEN  =    -20872.43096853
  -Hartree energ DENC   =     -8473.99712930
  -exchange      EXHF   =         0.00000000
  -V(xc)+E(xc)   XCENC  =      1049.98026405
  PAW double counting   =  75636832.25154661-75637975.55216885
  entropy T*S    EENTRO =         0.00000000
  eigenvalues    EBANDS =     -7900.01517528
  atomic energy  EATOM  =     34987.47230370
  Solvation  Ediel_sol  =         0.00000000
  ---------------------------------------------------
  free energy    TOTEN  =     -1641.03705674 eV

  energy without entropy =    -1641.03705674  energy(sigma->0) =    -1641.03705674


--------------------------------------------------------------------------------------------------------




--------------------------------------- Iteration      1(   9)  ---------------------------------------


    POTLOK:  cpu time      0.0306: real time      0.0317
    SETDIJ:  cpu time      4.1530: real time      4.1550
     EDDAV:  cpu time      6.7747: real time      6.7796
 BZINTS: Fermi energy:   -3.122008;  278.000000 electrons
         Band energy:-0.763951E+04;  BLOECHL correction:   -0.254581
       DOS:  cpu time      0.0534: real time      0.0535
    CHARGE:  cpu time      1.1562: real time      1.1569
    MIXING:  cpu time      0.0210: real time      0.0210
    --------------------------------------------
      LOOP:  cpu time     12.1889: real time     12.1978

 eigenvalue-minimisations  : 10584
 total energy-change (2. order) : 0.6969627E+03  (-0.1486250E+03)
 number of electron     278.0000007 magnetization       0.3487258
 augmentation part      134.4642318 magnetization      -0.0178767

 Broyden mixing:
  rms(total) = 0.36334E+03    rms(broyden)= 0.36334E+03
  rms(prec ) = 0.36350E+03
  weight for this iteration     100.00

 eigenvalues of (default mixing * dielectric matrix)
  average eigenvalue GAMMA=   0.5481
  0.6324  0.6324  0.4637  0.4637

 Free energy of the ion-electron system (eV)
  ---------------------------------------------------
  alpha Z        PSCENC =       711.25427086
  Ewald energy   TEWEN  =    -20872.43096853
  -Hartree energ DENC   =     -8114.90294479
  -exchange      EXHF   =         0.00000000
  -V(xc)+E(xc)   XCENC  =      1035.02261979
  PAW double counting   =  62083517.02413511-62084568.00523689
  entropy T*S    EENTRO =         0.00000000
  eigenvalues    EBANDS =     -7639.50852347
  atomic energy  EATOM  =     34987.47230370
  Solvation  Ediel_sol  =         0.00000000
  ---------------------------------------------------
  free energy    TOTEN  =      -944.07434422 eV

  energy without entropy =     -944.07434422  energy(sigma->0) =     -944.07434422


--------------------------------------------------------------------------------------------------------




--------------------------------------- Iteration      1(  10)  ---------------------------------------


    POTLOK:  cpu time      0.0313: real time      0.0322
    SETDIJ:  cpu time      4.1625: real time      4.1647
     EDDAV:  cpu time      6.2937: real time      6.2973
 BZINTS: Fermi energy:    0.387934;  278.000000 electrons
         Band energy:-0.703000E+04;  BLOECHL correction:   -0.042565
       DOS:  cpu time      0.0527: real time      0.0527
    CHARGE:  cpu time      1.1535: real time      1.1542
    MIXING:  cpu time      0.0217: real time      0.0217
    --------------------------------------------
      LOOP:  cpu time     11.7154: real time     11.7229

 eigenvalue-minimisations  :  9728
 total energy-change (2. order) : 0.6626573E+02  (-0.1068695E+03)
 number of electron     278.0000005 magnetization       0.1813440
 augmentation part      110.1648796 magnetization       0.2283704

 Broyden mixing:
  rms(total) = 0.31961E+03    rms(broyden)= 0.31961E+03
  rms(prec ) = 0.31976E+03
  weight for this iteration     100.00

 eigenvalues of (default mixing * dielectric matrix)
  average eigenvalue GAMMA=   0.8074
  1.2407  1.2407  0.6277  0.6277  0.3003

 Free energy of the ion-electron system (eV)
  ---------------------------------------------------
  alpha Z        PSCENC =       711.25427086
  Ewald energy   TEWEN  =    -20872.43096853
  -Hartree energ DENC   =     -8571.38526831
  -exchange      EXHF   =         0.00000000
  -V(xc)+E(xc)   XCENC  =      1048.80030258
  PAW double counting   =  47835975.90940771-47837127.42556144
  entropy T*S    EENTRO =         0.00000000
  eigenvalues    EBANDS =     -7030.00310367
  atomic energy  EATOM  =     34987.47230370
  Solvation  Ediel_sol  =         0.00000000
  ---------------------------------------------------
  free energy    TOTEN  =      -877.80861711 eV

  energy without entropy =     -877.80861711  energy(sigma->0) =     -877.80861711


--------------------------------------------------------------------------------------------------------




--------------------------------------- Iteration      1(  11)  ---------------------------------------


    POTLOK:  cpu time      0.0313: real time      0.0321
    SETDIJ:  cpu time      4.1197: real time      4.1221
     EDDAV:  cpu time      5.6150: real time      5.6177
 BZINTS: Fermi energy:    1.902536;  278.000000 electrons
         Band energy:-0.651834E+04;  BLOECHL correction:   -0.216027
       DOS:  cpu time      0.0520: real time      0.0520
    CHARGE:  cpu time      1.1556: real time      1.1563
    MIXING:  cpu time      0.0212: real time      0.0212
    --------------------------------------------
      LOOP:  cpu time     10.9947: real time     11.0013

 eigenvalue-minimisations  :  8360
 total energy-change (2. order) :-0.3235605E+03  (-0.4271688E+03)
 number of electron     278.0000008 magnetization       0.2879922
 augmentation part      149.4978322 magnetization      -0.9340185

 Broyden mixing:
  rms(total) = 0.13035E+03    rms(broyden)= 0.13035E+03
  rms(prec ) = 0.13132E+03
  weight for this iteration     100.00

 eigenvalues of (default mixing * dielectric matrix)
  average eigenvalue GAMMA=   0.8721
  1.5896  1.5896  0.6351  0.6351  0.5164  0.2667

 Free energy of the ion-electron system (eV)
  ---------------------------------------------------
  alpha Z        PSCENC =       711.25427086
  Ewald energy   TEWEN  =    -20872.43096853
  -Hartree energ DENC   =     -9454.03428993
  -exchange      EXHF   =         0.00000000
  -V(xc)+E(xc)   XCENC  =      1080.96712727
  PAW double counting   =   7872726.04166036 -7873862.30023182
  entropy T*S    EENTRO =         0.00000000
  eigenvalues    EBANDS =     -6518.33895394
  atomic energy  EATOM  =     34987.47230370
  Solvation  Ediel_sol  =         0.00000000
  ---------------------------------------------------
  free energy    TOTEN  =     -1201.36908203 eV

  energy without entropy =    -1201.36908203  energy(sigma->0) =    -1201.36908203


--------------------------------------------------------------------------------------------------------




--------------------------------------- Iteration      1(  12)  ---------------------------------------


    POTLOK:  cpu time      0.0313: real time      0.0322
    SETDIJ:  cpu time      4.0623: real time      4.0649
     EDDAV:  cpu time      5.0231: real time      5.0261
 BZINTS: Fermi energy:    3.504001;  278.000000 electrons
         Band energy:-0.496794E+04;  BLOECHL correction:   -0.342527
       DOS:  cpu time      0.0517: real time      0.0517
    CHARGE:  cpu time      1.1548: real time      1.1556
    MIXING:  cpu time      0.0225: real time      0.0225
    --------------------------------------------
      LOOP:  cpu time     10.3457: real time     10.3530

 eigenvalue-minimisations  :  7280
 total energy-change (2. order) : 0.2685952E+03  (-0.1187999E+03)
 number of electron     278.0000008 magnetization       0.2332546
 augmentation part      147.5625183 magnetization      -0.0404528

 Broyden mixing:
  rms(total) = 0.40804E+02    rms(broyden)= 0.40804E+02
  rms(prec ) = 0.43312E+02
  weight for this iteration     100.00

 eigenvalues of (default mixing * dielectric matrix)
  average eigenvalue GAMMA=   0.8675
  1.5850  1.5850  0.7333  0.7333  0.5659  0.5659  0.3039

 Free energy of the ion-electron system (eV)
  ---------------------------------------------------
  alpha Z        PSCENC =       711.25427086
  Ewald energy   TEWEN  =    -20872.43096853
  -Hartree energ DENC   =    -10677.93713344
  -exchange      EXHF   =         0.00000000
  -V(xc)+E(xc)   XCENC  =      1129.68795714
  PAW double counting   =    500707.60626217  -501950.48884996
  entropy T*S    EENTRO =         0.00000000
  eigenvalues    EBANDS =     -4967.93775408
  atomic energy  EATOM  =     34987.47230370
  Solvation  Ediel_sol  =         0.00000000
  ---------------------------------------------------
  free energy    TOTEN  =      -932.77391215 eV

  energy without entropy =     -932.77391215  energy(sigma->0) =     -932.77391215


--------------------------------------------------------------------------------------------------------




--------------------------------------- Iteration      1(  13)  ---------------------------------------


    POTLOK:  cpu time      0.0316: real time      0.0321
    SETDIJ:  cpu time      4.0608: real time      4.0626
     EDDAV:  cpu time      5.9334: real time      5.9362
 BZINTS: Fermi energy:    4.354976;  278.000000 electrons
         Band energy:-0.394186E+04;  BLOECHL correction:   -0.495638
       DOS:  cpu time      0.0533: real time      0.0534
    CHARGE:  cpu time      1.1490: real time      1.1497
    MIXING:  cpu time      0.0225: real time      0.0225
    --------------------------------------------
      LOOP:  cpu time     11.2506: real time     11.2565

 eigenvalue-minimisations  :  9064
 total energy-change (2. order) : 0.6185016E+03  (-0.6225401E+02)
 number of electron     278.0000008 magnetization       0.2229694
 augmentation part      146.4223438 magnetization       0.1101821

 Broyden mixing:
  rms(total) = 0.28239E+02    rms(broyden)= 0.28239E+02
  rms(prec ) = 0.29290E+02
  weight for this iteration     100.00

 eigenvalues of (default mixing * dielectric matrix)
  average eigenvalue GAMMA=   0.8501
  1.5905  1.5905  0.7667  0.7667  0.6228  0.6228  0.5518  0.2888

 Free energy of the ion-electron system (eV)
  ---------------------------------------------------
  alpha Z        PSCENC =       711.25427086
  Ewald energy   TEWEN  =    -20872.43096853
  -Hartree energ DENC   =    -11100.77769116
  -exchange      EXHF   =         0.00000000
  -V(xc)+E(xc)   XCENC  =      1144.32707211
  PAW double counting   =    264704.99724283  -265947.25725214
  entropy T*S    EENTRO =         0.00000000
  eigenvalues    EBANDS =     -3941.85733310
  atomic energy  EATOM  =     34987.47230370
  Solvation  Ediel_sol  =         0.00000000
  ---------------------------------------------------
  free energy    TOTEN  =      -314.27235544 eV

  energy without entropy =     -314.27235544  energy(sigma->0) =     -314.27235544


--------------------------------------------------------------------------------------------------------




--------------------------------------- Iteration      1(  14)  ---------------------------------------


    POTLOK:  cpu time      0.0310: real time      0.0326
    SETDIJ:  cpu time      4.1048: real time      4.1077
     EDDAV:  cpu time      5.1582: real time      5.1609
 BZINTS: Fermi energy:    4.135580;  278.000000 electrons
         Band energy:-0.391824E+04;  BLOECHL correction:   -0.703490
       DOS:  cpu time      0.0559: real time      0.0560
    CHARGE:  cpu time      1.1574: real time      1.1583
    MIXING:  cpu time      0.0229: real time      0.0229
    --------------------------------------------
      LOOP:  cpu time     10.5302: real time     10.5384

 eigenvalue-minimisations  :  7536
 total energy-change (2. order) : 0.5375118E+02  (-0.1619443E+02)
 number of electron     278.0000007 magnetization       0.1984376
 augmentation part      144.2906299 magnetization       0.0509285

 Broyden mixing:
  rms(total) = 0.26715E+02    rms(broyden)= 0.26715E+02
  rms(prec ) = 0.27691E+02
  weight for this iteration     100.00

 eigenvalues of (default mixing * dielectric matrix)
  average eigenvalue GAMMA=   0.8056
  1.5950  1.5950  0.7661  0.7661  0.7065  0.7065  0.5619  0.2769  0.2769

 Free energy of the ion-electron system (eV)
  ---------------------------------------------------
  alpha Z        PSCENC =       711.25427086
  Ewald energy   TEWEN  =    -20872.43096853
  -Hartree energ DENC   =    -11064.53202436
  -exchange      EXHF   =         0.00000000
  -V(xc)+E(xc)   XCENC  =      1143.25623741
  PAW double counting   =    272731.43429845  -273978.73690204
  entropy T*S    EENTRO =         0.00000000
  eigenvalues    EBANDS =     -3918.23839119
  atomic energy  EATOM  =     34987.47230370
  Solvation  Ediel_sol  =         0.00000000
  ---------------------------------------------------
  free energy    TOTEN  =      -260.52117569 eV

  energy without entropy =     -260.52117569  energy(sigma->0) =     -260.52117569


--------------------------------------------------------------------------------------------------------




--------------------------------------- Iteration      1(  15)  ---------------------------------------


    POTLOK:  cpu time      0.0317: real time      0.0324
    SETDIJ:  cpu time      4.0845: real time      4.0870
     EDDAV:  cpu time      6.0932: real time      6.0965
 BZINTS: Fermi energy:    4.107113;  278.000000 electrons
         Band energy:-0.377849E+04;  BLOECHL correction:   -0.763996
       DOS:  cpu time      0.0530: real time      0.0530
    CHARGE:  cpu time      1.1489: real time      1.1496
    MIXING:  cpu time      0.0231: real time      0.0231
    --------------------------------------------
      LOOP:  cpu time     11.4343: real time     11.4416

 eigenvalue-minimisations  :  9360
 total energy-change (2. order) : 0.6227794E+02  (-0.2836340E+01)
 number of electron     278.0000007 magnetization       0.1341082
 augmentation part      143.5378862 magnetization      -0.0379199

 Broyden mixing:
  rms(total) = 0.23901E+02    rms(broyden)= 0.23901E+02
  rms(prec ) = 0.24905E+02
  weight for this iteration     100.00

 eigenvalues of (default mixing * dielectric matrix)
  average eigenvalue GAMMA=   0.9062
  1.6323  1.6323  1.0977  1.0977  0.8621  0.8621  0.5706  0.5063  0.5063  0.2943

 Free energy of the ion-electron system (eV)
  ---------------------------------------------------
  alpha Z        PSCENC =       711.25427086
  Ewald energy   TEWEN  =    -20872.43096853
  -Hartree energ DENC   =    -11130.32487649
  -exchange      EXHF   =         0.00000000
  -V(xc)+E(xc)   XCENC  =      1147.06273732
  PAW double counting   =    209985.92731697  -211248.71451213
  entropy T*S    EENTRO =         0.00000000
  eigenvalues    EBANDS =     -3778.48950510
  atomic energy  EATOM  =     34987.47230370
  Solvation  Ediel_sol  =         0.00000000
  ---------------------------------------------------
  free energy    TOTEN  =      -198.24323340 eV

  energy without entropy =     -198.24323340  energy(sigma->0) =     -198.24323340


--------------------------------------------------------------------------------------------------------




--------------------------------------- Iteration      1(  16)  ---------------------------------------


    POTLOK:  cpu time      0.0315: real time      0.0321
    SETDIJ:  cpu time      4.0894: real time      4.0910
     EDDAV:  cpu time      5.5659: real time      5.5684
 BZINTS: Fermi energy:    6.261073;  278.000000 electrons
         Band energy:-0.368367E+04;  BLOECHL correction:   -0.099123
       DOS:  cpu time      0.0522: real time      0.0523
    CHARGE:  cpu time      1.1545: real time      1.1552
    MIXING:  cpu time      0.0241: real time      0.0242
    --------------------------------------------
      LOOP:  cpu time     10.9176: real time     10.9233

 eigenvalue-minimisations  :  8392
 total energy-change (2. order) : 0.6099773E+02  (-0.1167223E+02)
 number of electron     278.0000006 magnetization       0.1553753
 augmentation part      114.8649212 magnetization       0.0976937

 Broyden mixing:
  rms(total) = 0.17995E+02    rms(broyden)= 0.17995E+02
  rms(prec ) = 0.18901E+02
  weight for this iteration     100.00

 eigenvalues of (default mixing * dielectric matrix)
  average eigenvalue GAMMA=   0.8581
  1.6420  1.6420  1.1042  1.1042  0.8543  0.8543  0.5492  0.5301  0.5301  0.2888
  0.3393

 Free energy of the ion-electron system (eV)
  ---------------------------------------------------
  alpha Z        PSCENC =       711.25427086
  Ewald energy   TEWEN  =    -20872.43096853
  -Hartree energ DENC   =    -11156.39145602
  -exchange      EXHF   =         0.00000000
  -V(xc)+E(xc)   XCENC  =      1150.80251584
  PAW double counting   =    141310.70484101  -142584.98506760
  entropy T*S    EENTRO =         0.00000000
  eigenvalues    EBANDS =     -3683.67193820
  atomic energy  EATOM  =     34987.47230370
  Solvation  Ediel_sol  =         0.00000000
  ---------------------------------------------------
  free energy    TOTEN  =      -137.24549893 eV

  energy without entropy =     -137.24549893  energy(sigma->0) =     -137.24549893


--------------------------------------------------------------------------------------------------------




--------------------------------------- Iteration      1(  17)  ---------------------------------------


    POTLOK:  cpu time      0.0315: real time      0.0324
    SETDIJ:  cpu time      4.1187: real time      4.1213
     EDDAV:  cpu time      5.3924: real time      5.3962
 BZINTS: Fermi energy:    3.863108;  278.000000 electrons
         Band energy:-0.384611E+04;  BLOECHL correction:   -0.383013
       DOS:  cpu time      0.0569: real time      0.0569
    CHARGE:  cpu time      1.1493: real time      1.1501
    MIXING:  cpu time      0.0241: real time      0.0241
    --------------------------------------------
      LOOP:  cpu time     10.7729: real time     10.7811

 eigenvalue-minimisations  :  8000
 total energy-change (2. order) : 0.2393738E+02  (-0.1827743E+01)
 number of electron     278.0000007 magnetization       0.0800688
 augmentation part      140.5661753 magnetization       0.0297493

 Broyden mixing:
  rms(total) = 0.17451E+02    rms(broyden)= 0.17451E+02
  rms(prec ) = 0.18410E+02
  weight for this iteration     100.00

 eigenvalues of (default mixing * dielectric matrix)
  average eigenvalue GAMMA=   0.9185
  1.6134  1.6134  1.5387  1.5387  0.8313  0.8313  0.7170  0.7170  0.5856  0.4208
  0.3322  0.2820

 Free energy of the ion-electron system (eV)
  ---------------------------------------------------
  alpha Z        PSCENC =       711.25427086
  Ewald energy   TEWEN  =    -20872.43096853
  -Hartree energ DENC   =    -11024.01851081
  -exchange      EXHF   =         0.00000000
  -V(xc)+E(xc)   XCENC  =      1146.21950840
  PAW double counting   =    147165.48509426  -148381.18417285
  entropy T*S    EENTRO =         0.00000000
  eigenvalues    EBANDS =     -3846.10564485
  atomic energy  EATOM  =     34987.47230370
  Solvation  Ediel_sol  =         0.00000000
  ---------------------------------------------------
  free energy    TOTEN  =      -113.30811982 eV

  energy without entropy =     -113.30811982  energy(sigma->0) =     -113.30811982


--------------------------------------------------------------------------------------------------------




--------------------------------------- Iteration      1(  18)  ---------------------------------------


    POTLOK:  cpu time      0.0322: real time      0.0330
    SETDIJ:  cpu time      4.1110: real time      4.1136
     EDDAV:  cpu time      5.7949: real time      5.7977
 BZINTS: Fermi energy:    6.087567;  278.000000 electrons
         Band energy:-0.380942E+04;  BLOECHL correction:   -0.063793
       DOS:  cpu time      0.0490: real time      0.0491
    CHARGE:  cpu time      1.1531: real time      1.1546
    MIXING:  cpu time      0.0251: real time      0.0252
    --------------------------------------------
      LOOP:  cpu time     11.1653: real time     11.1731

 eigenvalue-minimisations  :  8808
 total energy-change (2. order) :-0.1712858E+02  (-0.1304099E+02)
 number of electron     278.0000006 magnetization       0.0666430
 augmentation part      114.7479999 magnetization       0.0253165

 Broyden mixing:
  rms(total) = 0.10003E+02    rms(broyden)= 0.10002E+02
  rms(prec ) = 0.11358E+02
  weight for this iteration     100.00

 eigenvalues of (default mixing * dielectric matrix)
  average eigenvalue GAMMA=   0.9477
  2.4843  1.5945  1.5945  0.8967  0.8967  1.0322  0.8210  0.8210  0.5810  0.5312
  0.5312  0.2983  0.2369

 Free energy of the ion-electron system (eV)
  ---------------------------------------------------
  alpha Z        PSCENC =       711.25427086
  Ewald energy   TEWEN  =    -20872.43096853
  -Hartree energ DENC   =    -11117.30018628
  -exchange      EXHF   =         0.00000000
  -V(xc)+E(xc)   XCENC  =      1151.08765676
[...]
  288          m_sumb_d                              0.000009                          2   4
  289        strnlr                                3.532503                            1   3
  290          rspher_all                            0.665987                          9   4
  291          phaser                                1.297245                         72   4
  292          rpro_isp                              1.563238                         72   4
  293            fftwav_mpi                            0.271550                     6624   5
  294              fftwav                                0.263455                   6624   6
  295                fft3d                                 0.044315                 6624   7
  296            rpromu_acc                            0.799303                     1728   5
  297          m_sumb_d                              0.001602                          1   4
  298        fft3d_mpi                             0.009186                           22   3
  299          fftbrc_mpi                            0.007560                         22   4
  300            fftbas_plan_mpi                       0.007546                       22   5
  301              map_forward                           0.003087                     20   6
  302                map_gather                            0.000531                   10   7
  303                m_alltoallv_z                         0.000147                   10   7
  304                map_scatter                           0.002099                   10   7
  305              map_backward                          0.003792                     24   6
  306                map_gather                            0.000736                   12   7
  307                m_alltoallv_z                         0.000154                   12   7
  308                map_scatter                           0.002365                   12   7
  309        m_sumb_d                              0.000041                            5   3
  310        forhar                                0.011768                            2   3
  311          m_sumb_d                              0.000678                          2   4
  312        strehar                               0.009619                            1   3
  313          m_sumb_d                              0.000132                          1   4
  314        chggra                                0.002002                            1   3
  315          fft3d_mpi                             0.001267                          3   4
  316            fftbrc_mpi                            0.001026                        3   5
  317              fftbas_plan_mpi                       0.001024                      3   6
  318                map_forward                           0.000629                    4   7
  319                  map_gather                            0.000105                  2   8
  320                  m_alltoallv_z                         0.000030                  2   8
  321                  map_scatter                           0.000429                  2   8
  322                map_backward                          0.000302                    2   7
  323                  map_gather                            0.000061                  1   8
  324                  m_alltoallv_z                         0.000015                  1   8
  325                  map_scatter                           0.000179                  1   8
  326          m_sumb_d                              0.000011                          2   4
  327          pothar                                0.000147                          1   4
  328            m_sumb_d                              0.000009                        1   5
  329        brmix                                 0.040642                            1   3
  330          m_sumb_d                              0.000131                          6   4
  331          brpre                                 0.000245                          2   4
  332          setg0                                 0.008530                          1   4
  333          broyd                                 0.022537                          1   4
  334            m_sumb_d                              0.000373                       39   5
  335            brget                                 0.005528                      169   5
  336            brsav                                 0.001149                       37   5
  337        m_bcast_d                             0.000053                            2   3
  338      potlok                                0.239991                              2   2
  339        fft3d_mpi                             0.165450                           36   3
  340          fftbrc_mpi                            0.138155                         36   4
  341            fftbas_plan_mpi                       0.138132                       36   5
  342              map_forward                           0.038036                     40   6
  343                map_gather                            0.010043                   24   7
  344                m_alltoallv_z                         0.014391                   24   7
  345                map_scatter                           0.013200                   24   7
  346              map_backward                          0.028528                     32   6
  347                map_gather                            0.006566                   16   7
  348                m_alltoallv_z                         0.010929                   16   7
  349                map_scatter                           0.010483                   16   7
  350              dfftw_execute                         0.069438                     30   6
  351        m_sumb_d                              0.000033                            5   3
  352        pothar                                0.011384                            2   3
  353          m_sumb_d                              0.000053                          2   4
  354        m_bcast_d                             0.016881                            4   3
  355      potlok_metagga                        0.000000                              1   2
  356      set_dd_magatom                        0.000005                              1   2
  357      set_dd_paw                            3.252043                              1   2
  358        m_sumb_d                              0.478537                            7   3
  359      augmentation_charge                   0.916863                              1   2
  360        fft3d_mpi                             0.483210                            2   3
  361          fftbrc_mpi                            0.421294                          2   4
  362            fftbas_plan_mpi                       0.421291                        2   5
  363              dfftw_execute                         0.274423                      6   6
  364              map_backward                          0.146529                      4   6
  365                map_gather                            0.052114                    2   7
  366                m_alltoallv_z                         0.031317                    2   7
  367                map_scatter                           0.063084                    2   7
  368      fftwav_mpi                           16.244107                           2208   2
  369        fftwav                               16.238635                         2208   3
  370          fft3d                                15.217820                       2208   4
  371      densta                                2.898445                              1   2
 
 Flat profile
 ============
 
             routine name                   CPU           calls
 ---------------------------------------------------------------
 set_dd_paw                             95.849034          35
 raccmu_                                70.889186       51295
 total_time                             57.340280           1
 eddav                                  36.511693          37
 dfftw_execute                          30.053666        1284
 m_sumb_d                               29.266701      158695
 setdij_                                25.728924          61
 lapack                                 24.471753       51295
 fft3d                                  21.192913      311588
 augmentation_charge                    15.255090          35
 redis_pw                               12.867827      281754
 phaser                                 12.237144         696
 init_acc                               11.649018           1
 fft3d_mpi                               6.241808      103927
 map_scatter                             5.887717        1495
 hamiltmu                                5.886465       51295
 m_alltoall_d                            5.585143      749042
 map_gather                              4.973593        1495
 densta                                  4.827108          38
 eccp                                    4.681606       27232
 m_alltoallv_z                           3.987787        1495
 fftwav                                  3.548138      208998
 acc_init_cublas                         3.438150           1
 orth1                                   2.920662      153981
 set_charge                              2.547944          34
 redis_proj                              2.361442      357128
 rpromu_acc                              2.169217       40175
 pw_charge                               1.604283       19274
 m_bcast_z                               1.589864       54239
 overl                                   1.559815      177964
 w1_copy                                 1.516328      307770
 racc0mu_acc                             1.500127       51295
 soft_charge                             1.168614          34
 acc_init_cusolver                       1.024620           1
 setup_precond                           0.990023       27232
 rspher_all                              0.983372          14
 m_bcast_d                               0.877348      102665
 ggemm                                   0.868753       64911
 overl_mu                                0.824780       51295
 potlok                                  0.755645          35
 rpro_isp                                0.676856         104
 vhamil                                  0.508794      102590
 kinhamil                                0.463570      102590
 newband                                 0.454403       51887
 acc_cufft_makeplan                      0.441815          19
 fftext_mpi                              0.439989      102590
 depsum                                  0.411446          34
 apply_precond                           0.409767       75358
 brmix                                   0.319581          33
 broyd                                   0.289745          33
 fftwav_mpi                              0.279529      208998
 setg0                                   0.257137          35
 elmin                                   0.202615           1
 sphpro_fast                             0.182841           2
 fftbas_plan_mpi                         0.101765        1337
 stufak                                  0.099596           1
 proall                                  0.095868           1
 brget                                   0.091342        2931
 force_and_stress                        0.047161           1
 orthch                                  0.040009           1
 w1_projall                              0.039296       37679
 lincom                                  0.023868         608
 brsav                                   0.021546         699
 map_backward                            0.020352        1394
 fft_gq                                  0.019674          34
 pothar                                  0.016592          36
 choleski                                0.016162          16
 map_forward                             0.014226        1280
 strelo                                  0.011563           1
 forhar                                  0.011090           2
 truncate_high_frequency_w1              0.011069      129822
 strehar                                 0.009487           1
 forloc                                  0.006617           1
 brpre                                   0.005584          66
 inisym                                  0.004454           1
 strnlr                                  0.004431           1
 rsp                                     0.002471           1
 strkin                                  0.002073           1
 fornlr                                  0.001432           1
 brgrid                                  0.001150           1
 fftbrc_mpi                              0.001107        1337
 chggra                                  0.000577           1
 fewald                                  0.000384           1
 vectorpot                               0.000205          34
 set_dd_magatom                          0.000189          35
 fordep                                  0.000139           1
 posmap                                  0.000052           2
 rcp                                     0.000045           1
 crpa_reader                             0.000034           1
 acc_cufft_makeplans                     0.000007           3
 potlok_metagga                          0.000002          34
 rotate_active_occupied_orbital          0.000001           1
 redis_pw_over_bands                     0.000000           1
 ---------------------------------------------------------------
  summed up times     523.6932890415192     
 
 Accumulative profile
 ====================
 
             routine name                   CPU           calls
 ---------------------------------------------------------------
 total_time                            523.693289           1
 elmin                                 381.108468           1
 eddav                                 203.401466          37
 set_dd_paw                            112.412472          35
 hamiltmu                               81.308031       51295
 raccmu_                                73.214093       51295
 setdij_                                56.842627          61
 fft3d_mpi                              52.045752      103927
 fftbrc_mpi                             45.040213        1337
 fftbas_plan_mpi                        45.039106        1337
 set_charge                             43.272336          34
 force_and_stress                       33.558079           1
 augmentation_charge                    32.255471          35
 dfftw_execute                          30.053666        1284
 m_sumb_d                               29.266701      158695
 lapack                                 24.471753       51295
 fftwav_mpi                             24.256850      208998
 fftwav                                 23.977321      208998
 fft3d                                  21.192913      311588
 redis_pw                               15.716698      281754
 phaser                                 12.237144         696
 init_acc                               11.649018           1
 soft_charge                             8.565217          34
 newband                                 8.280040       51887
 map_forward                             7.918098        1280
 map_backward                            6.965577        1394
 map_scatter                             5.887717        1495
 fordep                                  5.616339           1
 m_alltoall_d                            5.585143      749042
 redis_proj                              5.097714      357128
 map_gather                              4.973593        1495
 densta                                  4.827108          38
 eccp                                    4.681606       27232
 m_alltoallv_z                           3.987787        1495
 strnlr                                  3.532503           1
 acc_init_cublas                         3.438150           1
 orth1                                   2.920662      153981
 rpromu_acc                              2.169217       40175
 rpro_isp                                2.123308         104
 kinhamil                                1.698679      102590
 pw_charge                               1.604283       19274
 m_bcast_z                               1.589864       54239
 overl                                   1.559815      177964
 w1_copy                                 1.516328      307770
 racc0mu_acc                             1.500127       51295
 potlok                                  1.452614          35
 fftext_mpi                              1.235109      102590
 fornlr                                  1.185348           1
 w1_projall                              1.136754       37679
 acc_init_cusolver                       1.024620           1
 brmix                                   1.000132          33
 setup_precond                           0.990023       27232
 rspher_all                              0.983372          14
 m_bcast_d                               0.877348      102665
 ggemm                                   0.868753       64911
 overl_mu                                0.824780       51295
 fft_gq                                  0.521351          34
 vhamil                                  0.508794      102590
 acc_cufft_makeplans                     0.441822           3
 acc_cufft_makeplan                      0.441815          19
 depsum                                  0.428702          34
 orthch                                  0.415982           1
 broyd                                   0.411200          33
 apply_precond                           0.409767       75358
 proall                                  0.275582           1
 setg0                                   0.257137          35
 sphpro_fast                             0.190593           2
 stufak                                  0.099596           1
 brget                                   0.091342        2931
 lincom                                  0.023868         608
 brsav                                   0.021546         699
 pothar                                  0.017165          36
 choleski                                0.016162          16
 forhar                                  0.011768           2
 strelo                                  0.011572           1
 truncate_high_frequency_w1              0.011069      129822
 strehar                                 0.009619           1
 forloc                                  0.008783           1
 brpre                                   0.005584          66
 fewald                                  0.005368           1
 inisym                                  0.004506           1
 rsp                                     0.002471           1
 strkin                                  0.002078           1
 chggra                                  0.002002           1
 brgrid                                  0.001150           1
 vectorpot                               0.000205          34
 set_dd_magatom                          0.000189          35
 posmap                                  0.000052           2
 rcp                                     0.000045           1
 crpa_reader                             0.000034           1
 potlok_metagga                          0.000002          34
 rotate_active_occupied_orbital          0.000001           1
 redis_pw_over_bands                     0.000000           1
 ---------------------------------------------------------------
 
Profiling took   0.659820  0.316199  0.003199  0.003071 seconds
Profiling took   0.397470 seconds
