 vasp.6.3.2 27Jun22 (build Jul  3 2023 11:46:21) complex                         
 executed on    LinuxNV_CrayMPICH date 2024.04.22  03:24:19
 running on    4 total cores
 distrk:  each k-point on    4 cores,    1 groups
 distr:  one band on NCORE=   1 cores,    4 groups


--------------------------------------------------------------------------------------------------------


 INCAR:
   ALGO = Fast
   EDIFF = 0.0009
   ENCUT = 520.0
   IBRION = 2
   ICHARG = 1
   ISIF = 3
   ISMEAR = -5
   ISPIN = 2
   ISTART = 1
   KPOINT_BSE = -1 0 0 0
   LORBIT = 11
   LREAL = Auto
   LWAVE = False
   MAGMOM = 2*0.6 1*7.0 9*0.6 6*5.0
   NELM = 1000
   NSW = 99
   PREC = accurate
   SIGMA = 0.05

 POTCAR:    PAW_PBE Ca_sv 06Sep2000               
 POTCAR:    PAW_PBE Eu 23Dec2003                  
 POTCAR:    PAW_PBE Zn 06Sep2000                  
 POTCAR:    PAW_PBE Ni_pv 06Sep2000               
 POTCAR:    PAW_PBE Ca_sv 06Sep2000               
   SHA256 =  a47365830e737f14e0e6c5cf1ed81b94e081eecf0a33df105380881bc9da05d5 Ca_sv/POTCAR          
   COPYR  = (c) Copyright 06Sep2000 Georg Kresse                                                    
   COPYR  = This file is part of the software VASP. Any use, copying, and all other rights are regul
   COPYR  = If you do not have a valid VASP license, you may not use, copy or distribute this file. 
   VRHFIN =Ca: 3s3p4s                                                                               
   LEXCH  = PE                                                                                      
   EATOM  =  1006.0909 eV,   73.9456 Ry                                                             
                                                                                                    
   TITEL  = PAW_PBE Ca_sv 06Sep2000                                                                 
   LULTRA =        F    use ultrasoft PP ?                                                          
   IUNSCR =        1    unscreen: 0-lin 1-nonlin 2-no                                               
   RPACOR =    2.000    partial core radius                                                         
   POMASS =   40.078; ZVAL   =   10.000    mass and valenz                                          
   RCORE  =    2.300    outmost cutoff radius                                                       
   RWIGS  =    2.500; RWIGS  =    1.323    wigner-seitz radius (au A)                               
   ENMAX  =  266.622; ENMIN  =  199.967 eV                                                          
   RCLOC  =    1.808    cutoff for local pot                                                        
   LCOR   =        T    correct aug charges                                                         
   LPAW   =        T    paw PP                                                                      
   EAUG   =  420.852                                                                                
   RMAX   =    2.359    core radius for proj-oper                                                   
   RAUG   =    1.300    factor for augmentation sphere                                              
   RDEP   =    2.392    radius for radial grids                                                     
   RDEPT  =    1.987    core radius for aug-charge                                                  
                                                                                                    
   Atomic configuration                                                                             
    7 entries                                                                                       
     n  l   j            E        occ.                                                              
     1  0  0.50     -3949.1705   2.0000                                                             
     2  0  0.50      -414.3434   2.0000                                                             
     2  1  1.50      -334.7047   6.0000                                                             
     3  0  0.50       -47.0896   2.0000                                                             
     4  0  0.50        -3.7663   2.0000                                                             
     3  1  1.50       -28.0061   6.0000                                                             
     3  2  1.50        -4.0817   0.0000                                                             
   Description                                                                                      
     l       E           TYP  RCUT    TYP  RCUT                                                     
     0    -47.0896403     23  2.300                                                                 
     0     -3.7663320     23  2.300                                                                 
     1    -28.0060855     23  2.300                                                                 
     1      6.8029130     23  2.300                                                                 
     2     -4.0817478     23  2.300                                                                 
     2      0.4464412     23  2.300                                                                 
  local pseudopotential read in
  partial core-charges read in
  partial kinetic energy density read in
  atomic valenz-charges read in
  non local Contribution for L=            0  read in
    real space projection operators read in
  non local Contribution for L=            0  read in
    real space projection operators read in
  non local Contribution for L=            1  read in
    real space projection operators read in
  non local Contribution for L=            1  read in
    real space projection operators read in
  non local Contribution for L=            2  read in
    real space projection operators read in
  non local Contribution for L=            2  read in
    real space projection operators read in
    PAW grid and wavefunctions read in
 
   number of l-projection  operators is LMAX  =            6
   number of lm-projection operators is LMMAX =           18
 
 POTCAR:    PAW_PBE Eu 23Dec2003                  
   SHA256 =  ed303d27e7c5191953f9b15539336e6f36d9037c1d2e92e80c13d733697cb93d Eu/POTCAR             
   COPYR  = (c) Copyright 23Dec2003 Georg Kresse                                                    
   COPYR  = This file is part of the software VASP. Any use, copying, and all other rights are regul
   COPYR  = If you do not have a valid VASP license, you may not use, copy or distribute this file. 
   VRHFIN =Eu : [core=Kr4d]                                                                         
   LEXCH  = PE                                                                                      
   EATOM  =  2619.8085 eV,  192.5505 Ry                                                             
                                                                                                    
   TITEL  = PAW_PBE Eu 23Dec2003                                                                    
   LULTRA =        F    use ultrasoft PP ?                                                          
   IUNSCR =        1    unscreen: 0-lin 1-nonlin 2-no                                               
   RPACOR =    2.300    partial core radius                                                         
   POMASS =  151.965; ZVAL   =   17.000    mass and valenz                                          
   RCORE  =    2.800    outmost cutoff radius                                                       
   RWIGS  =    2.800; RWIGS  =    1.482    wigner-seitz radius (au A)                               
   ENMAX  =  249.668; ENMIN  =  187.251 eV                                                          
   RCLOC  =    2.308    cutoff for local pot                                                        
   LCOR   =        T    correct aug charges                                                         
   LPAW   =        T    paw PP                                                                      
   EAUG   =  549.628                                                                                
   DEXC   =    0.000                                                                                
   RMAX   =    2.870    core radius for proj-oper                                                   
   RAUG   =    1.300    factor for augmentation sphere                                              
   RDEP   =    2.887    radius for radial grids                                                     
   RDEPT  =    2.221    core radius for aug-charge                                                  
                                                                                                    
   Atomic configuration                                                                             
   14 entries                                                                                       
     n  l   j            E        occ.                                                              
     1  0  0.50    -48354.7667   2.0000                                                             
     2  0  0.50     -7939.6472   2.0000                                                             
     2  1  1.50     -7072.6637   6.0000                                                             
     3  0  0.50     -1747.1875   2.0000                                                             
     3  1  1.50     -1477.5221   6.0000                                                             
     3  2  2.50     -1117.4686  10.0000                                                             
     4  0  0.50      -346.8682   2.0000                                                             
     4  1  1.50      -258.1962   6.0000                                                             
     4  2  2.50      -134.7724  10.0000                                                             
     5  0  0.50       -44.6510   2.0000                                                             
     6  0  0.50        -3.6227   2.0000                                                             
     5  1  1.50       -23.7639   6.0000                                                             
     5  2  2.50        -1.3130   0.0000                                                             
     4  3  2.50        -2.7310   7.0000                                                             
   Description                                                                                      
     l       E           TYP  RCUT    TYP  RCUT                                                     
     0    -44.6510453     23  2.400                                                                 
     0     -3.6226685     23  2.400                                                                 
     1    -23.7638687     23  2.400                                                                 
     1     27.2116520     23  2.400                                                                 
     2     -1.3129622     23  2.500                                                                 
     2     13.6058260     23  2.500                                                                 
     3     -2.7309948     23  2.800                                                                 
     3     -3.4014565     23  2.800                                                                 
  local pseudopotential read in
  partial core-charges read in
  partial kinetic energy density read in
  atomic valenz-charges read in
  non local Contribution for L=            0  read in
    real space projection operators read in
  non local Contribution for L=            0  read in
    real space projection operators read in
  non local Contribution for L=            1  read in
    real space projection operators read in
  non local Contribution for L=            1  read in
    real space projection operators read in
  non local Contribution for L=            2  read in
    real space projection operators read in
  non local Contribution for L=            2  read in
    real space projection operators read in
  non local Contribution for L=            3  read in
    real space projection operators read in
  non local Contribution for L=            3  read in
    real space projection operators read in
    PAW grid and wavefunctions read in
 
   number of l-projection  operators is LMAX  =            8
   number of lm-projection operators is LMMAX =           32
 
 POTCAR:    PAW_PBE Zn 06Sep2000                  
   SHA256 =  501fddbd8274dd8e9725d4f3de27861d7f1e553a7e18441bc79fed8f346e7f23 Zn/POTCAR             
   COPYR  = (c) Copyright 06Sep2000 Georg Kresse                                                    
   COPYR  = This file is part of the software VASP. Any use, copying, and all other rights are regul
   COPYR  = If you do not have a valid VASP license, you may not use, copy or distribute this file. 
   VRHFIN =Zn: d10 p2                                                                               
   LEXCH  = PE                                                                                      
   EATOM  =  1748.8345 eV,  128.5357 Ry                                                             
                                                                                                    
   TITEL  = PAW_PBE Zn 06Sep2000                                                                    
   LULTRA =        F    use ultrasoft PP ?                                                          
   IUNSCR =        1    unscreen: 0-lin 1-nonlin 2-no                                               
   RPACOR =    2.000    partial core radius                                                         
   POMASS =   65.390; ZVAL   =   12.000    mass and valenz                                          
   RCORE  =    2.300    outmost cutoff radius                                                       
   RWIGS  =    2.400; RWIGS  =    1.270    wigner-seitz radius (au A)                               
   ENMAX  =  276.723; ENMIN  =  207.542 eV                                                          
   RCLOC  =    1.828    cutoff for local pot                                                        
   LCOR   =        T    correct aug charges                                                         
   LPAW   =        T    paw PP                                                                      
   EAUG   =  575.892                                                                                
   DEXC   =    0.000                                                                                
   RMAX   =    2.347    core radius for proj-oper                                                   
   RAUG   =    1.300    factor for augmentation sphere                                              
   RDEP   =    2.324    radius for radial grids                                                     
   RDEPT  =    1.788    core radius for aug-charge                                                  
                                                                                                    
   Atomic configuration                                                                             
    9 entries                                                                                       
     n  l   j            E        occ.                                                              
     1  0  0.50     -9524.6913   2.0000                                                             
     2  0  0.50     -1158.1882   2.0000                                                             
     2  1  1.50     -1003.8506   6.0000                                                             
     3  0  0.50      -129.2194   2.0000                                                             
     3  1  1.50       -83.3890   6.0000                                                             
     3  2  2.50       -10.1410  10.0000                                                             
     4  0  0.50        -5.9785   2.0000                                                             
     4  1  0.50        -4.0817   0.0000                                                             
     4  3  2.50        -1.3606   0.0000                                                             
   Description                                                                                      
     l       E           TYP  RCUT    TYP  RCUT                                                     
     2    -10.1410010     23  2.300                                                                 
     2    -11.5015836     23  2.300                                                                 
     0     -5.9785163     23  2.300                                                                 
     0      1.1858015     23  2.300                                                                 
     1     -2.7211652     23  2.300                                                                 
     1     13.2444212     23  2.300                                                                 
  local pseudopotential read in
  partial core-charges read in
  partial kinetic energy density read in
  atomic valenz-charges read in
  non local Contribution for L=            2  read in
    real space projection operators read in
  non local Contribution for L=            2  read in
    real space projection operators read in
  non local Contribution for L=            0  read in
    real space projection operators read in
  non local Contribution for L=            0  read in
    real space projection operators read in
  non local Contribution for L=            1  read in
    real space projection operators read in
  non local Contribution for L=            1  read in
    real space projection operators read in
    PAW grid and wavefunctions read in
 
   number of l-projection  operators is LMAX  =            6
   number of lm-projection operators is LMMAX =           18
 
 POTCAR:    PAW_PBE Ni_pv 06Sep2000               
   SHA256 =  368cd815a19284a5fda64519f43fef792dad8376deb9e2da41aae78b997dc50e Ni_pv/POTCAR          
   COPYR  = (c) Copyright 06Sep2000 Georg Kresse                                                    
   COPYR  = This file is part of the software VASP. Any use, copying, and all other rights are regul
   COPYR  = If you do not have a valid VASP license, you may not use, copy or distribute this file. 
   VRHFIN =Ni:                                                                                      
   LEXCH  = PE                                                                                      
   EATOM  =  3501.1230 eV,  257.3253 Ry                                                             
                                                                                                    
   TITEL  = PAW_PBE Ni_pv 06Sep2000                                                                 
   LULTRA =        F    use ultrasoft PP ?                                                          
   IUNSCR =        1    unscreen: 0-lin 1-nonlin 2-no                                               
   RPACOR =    1.500    partial core radius                                                         
   POMASS =   58.690; ZVAL   =   16.000    mass and valenz                                          
   RCORE  =    2.000    outmost cutoff radius                                                       
   RWIGS  =    2.000; RWIGS  =    1.058    wigner-seitz radius (au A)                               
   ENMAX  =  367.986; ENMIN  =  275.989 eV                                                          
   RCLOC  =    1.301    cutoff for local pot                                                        
   LCOR   =        T    correct aug charges                                                         
   LPAW   =        T    paw PP                                                                      
   EAUG   =  703.443                                                                                
   DEXC   =    0.000                                                                                
   RMAX   =    2.041    core radius for proj-oper                                                   
   RAUG   =    1.300    factor for augmentation sphere                                              
   RDEP   =    2.103    radius for radial grids                                                     
   RDEPT  =    1.618    core radius for aug-charge                                                  
                                                                                                    
   Atomic configuration                                                                             
    8 entries                                                                                       
     n  l   j            E        occ.                                                              
     1  0  0.50     -8206.4253   2.0000                                                             
     2  0  0.50      -976.1748   2.0000                                                             
     2  1  1.50      -839.0571   6.0000                                                             
     3  0  0.50      -105.9991   2.0000                                                             
     3  1  1.50       -66.4603   6.0000                                                             
     3  2  2.50        -4.6458   9.0000                                                             
     4  0  0.50        -4.4926   1.0000                                                             
     4  3  2.50        -1.3606   0.0000                                                             
   Description                                                                                      
     l       E           TYP  RCUT    TYP  RCUT                                                     
     1    -66.4602962     23  1.700                                                                 
     1     -1.3605826     23  1.700                                                                 
     2     -4.6457867     23  2.000                                                                 
     2     -6.0063693     23  2.000                                                                 
     0     -4.4925576     23  1.900                                                                 
     0     16.3626226     23  1.900                                                                 
  local pseudopotential read in
  partial core-charges read in
  partial kinetic energy density read in
  atomic valenz-charges read in
  non local Contribution for L=            1  read in
    real space projection operators read in
  non local Contribution for L=            1  read in
    real space projection operators read in
  non local Contribution for L=            2  read in
    real space projection operators read in
  non local Contribution for L=            2  read in
    real space projection operators read in
  non local Contribution for L=            0  read in
    real space projection operators read in
  non local Contribution for L=            0  read in
    real space projection operators read in
    PAW grid and wavefunctions read in
 
   number of l-projection  operators is LMAX  =            6
   number of lm-projection operators is LMMAX =           18
 
 Optimization of the real space projectors (new method)

 maximal supplied QI-value         = 16.25
 optimisation between [QCUT,QGAM] = [ 11.54, 23.24] = [ 37.28,151.24] Ry 
 Optimized for a Real-space Cutoff    1.58 Angstroem

   l    n(q)    QCUT    max X(q) W(low)/X(q) W(high)/X(q)  e(spline) 
   0     11    11.539    11.817    0.25E-04    0.22E-05    0.26E-07
   0     11    11.539     8.461    0.39E-04    0.49E-05    0.55E-07
   1     11    11.539     3.957    0.21E-05    0.44E-05    0.32E-07
   1     11    11.539     4.314    0.56E-04    0.44E-04    0.19E-06
   2     10    11.539    14.565    0.25E-03    0.21E-04    0.75E-06
   2     10    11.539    14.552    0.23E-03    0.22E-04    0.72E-06
 Optimization of the real space projectors (new method)

 maximal supplied QI-value         = 13.42
 optimisation between [QCUT,QGAM] = [ 11.67, 23.35] = [ 38.16,152.62] Ry 
 Optimized for a Real-space Cutoff    1.63 Angstroem

   l    n(q)    QCUT    max X(q) W(low)/X(q) W(high)/X(q)  e(spline) 
   0     11    11.673    10.400    0.14E-04    0.18E-05    0.24E-07
   0     11    11.673    10.768    0.21E-04    0.32E-05    0.49E-07
   1     11    11.673     4.094    0.40E-05    0.13E-04    0.93E-07
   1     11    11.673     4.009    0.11E-04    0.46E-04    0.33E-06
   2     10    11.673    29.030    0.79E-04    0.60E-04    0.70E-06
   2     10    11.673    19.941    0.80E-04    0.60E-04    0.71E-06
   3     10    11.673    88.889    0.23E-03    0.29E-03    0.30E-06
   3     10    11.673    76.102    0.23E-03    0.30E-03    0.30E-06
 Optimization of the real space projectors (new method)

 maximal supplied QI-value         = 16.25
 optimisation between [QCUT,QGAM] = [ 11.54, 23.24] = [ 37.28,151.24] Ry 
 Optimized for a Real-space Cutoff    1.49 Angstroem

   l    n(q)    QCUT    max X(q) W(low)/X(q) W(high)/X(q)  e(spline) 
   2      9    11.539    46.356    0.17E-03    0.92E-04    0.19E-06
   2      9    11.539    41.843    0.18E-03    0.96E-04    0.20E-06
   0     10    11.539    48.958    0.57E-04    0.27E-04    0.28E-06
   0     10    11.539    32.776    0.51E-04    0.25E-04    0.27E-06
   1     10    11.539    17.787    0.55E-04    0.96E-04    0.11E-06
   1     10    11.539    14.435    0.48E-04    0.86E-04    0.10E-06
 Optimization of the real space projectors (new method)

 maximal supplied QI-value         = 18.90
 optimisation between [QCUT,QGAM] = [ 11.53, 23.24] = [ 37.21,151.29] Ry 
 Optimized for a Real-space Cutoff    1.36 Angstroem

   l    n(q)    QCUT    max X(q) W(low)/X(q) W(high)/X(q)  e(spline) 
   1      9    11.527     2.836    0.16E-04    0.30E-04    0.95E-07
   1      9    11.527     4.023    0.73E-04    0.81E-04    0.21E-06
   2      9    11.527    73.368    0.15E-03    0.29E-03    0.28E-06
   2      9    11.527    69.010    0.15E-03    0.29E-03    0.29E-06
   0      9    11.527    54.797    0.43E-04    0.28E-04    0.85E-07
   0      9    11.527    24.266    0.33E-04    0.24E-04    0.75E-07
  PAW_PBE Ca_sv 06Sep2000               :
 energy of atom  1       EATOM=-1006.0909
 kinetic energy error for atom=    0.0022 (will be added to EATOM!!)
  PAW_PBE Eu 23Dec2003                  :
 energy of atom  2       EATOM=-2619.8085
 kinetic energy error for atom=    0.0015 (will be added to EATOM!!)
  PAW_PBE Zn 06Sep2000                  :
 energy of atom  3       EATOM=-1748.8345
 kinetic energy error for atom=    0.0029 (will be added to EATOM!!)
  PAW_PBE Ni_pv 06Sep2000               :
 energy of atom  4       EATOM=-3501.1230
 kinetic energy error for atom=    0.0575 (will be added to EATOM!!)
 
 
 POSCAR: Ca2 Eu1 Zn9 Ni6
  positions in direct lattice
  No initial velocities read in
 exchange correlation table for  LEXCH =        8
   RHO(1)=    0.500       N(1)  =     2000
   RHO(2)=  100.500       N(2)  =     4000

 VTST: version 4.2, (08/11/21)

 CHAIN: initializing optimizer
 
 OPT: Using VASP Conjugate-Gradient optimizer
 CHAIN: Read ICHAIN             0
 
 POSCAR: Ca2 Eu1 Zn9 Ni6
  positions in direct lattice
  No initial velocities read in
 


--------------------------------------------------------------------------------------------------------


 ion  position               nearest neighbor table
   1  0.500  0.667  0.333-
   2  0.500  0.333  0.667-
   3  0.000  0.000  0.000-  16 2.88  13 2.88  17 2.88  14 2.88  15 2.89  18 2.89
   4  0.500  0.293  0.293-  13 2.55  13 2.55  17 2.55  17 2.55   9 2.69   8 2.69  12 2.83  12 2.83

   5  0.500  1.000  0.707-  16 2.55  16 2.55  14 2.55  14 2.55   9 2.69   7 2.69  10 2.83  10 2.83

   6  0.500  0.707  0.000-  18 2.55  18 2.55  15 2.55  15 2.55   8 2.69   7 2.69  11 2.83  11 2.83

   7  0.500  0.707  0.707-  16 2.55  16 2.55  15 2.55  15 2.55   6 2.69   5 2.69  12 2.83  12 2.83

   8  0.500  0.000  0.293-  13 2.55  13 2.55  18 2.55  18 2.55   6 2.69   4 2.69  10 2.83  10 2.83

   9  0.500  0.293  0.000-  14 2.55  14 2.55  17 2.55  17 2.55   5 2.69   4 2.69  11 2.83  11 2.83

  10  0.000  0.000  0.500-  18 2.54  14 2.54  13 2.54  16 2.54   8 2.83   8 2.83   5 2.83   5 2.83

  11  0.000  0.500  0.000-  14 2.54  17 2.54  18 2.54  15 2.54   9 2.83   9 2.83   6 2.83   6 2.83

  12  0.000  0.500  0.500-  15 2.54  17 2.54  16 2.54  13 2.54   7 2.83   7 2.83   4 2.83   4 2.83

  13  0.000  0.182  0.363-  10 2.54  12 2.54   8 2.55   8 2.55   4 2.55   4 2.55   3 2.88
  14  0.000  0.182  0.819-  10 2.54  11 2.54   9 2.55   9 2.55   5 2.55   5 2.55   3 2.88
  15  0.000  0.637  0.819-  12 2.54  11 2.54   6 2.55   6 2.55   7 2.55   7 2.55   3 2.89
  16  0.000  0.819  0.637-  12 2.54  10 2.54   7 2.55   7 2.55   5 2.55   5 2.55   3 2.88
  17  0.000  0.363  0.181-  12 2.54  11 2.54   9 2.55   9 2.55   4 2.55   4 2.55   3 2.88
  18  0.000  0.818  0.181-  10 2.54  11 2.54   6 2.55   6 2.55   8 2.55   8 2.55   3 2.89
 
  LATTYP: Found a base centered orthorhombic cell.
 ALAT       =     9.1805557255
 B/A-ratio  =     1.7294543496
 C/A-ratio  =     0.4563219782
  
  Lattice vectors:
  
 A1 = (   4.5799561700,  -7.9446353900,   0.0000000000)
 A2 = (  -9.1702339100,  -0.0059591600,   0.0000000000)
 A3 = (   0.0000000000,   0.0000000000,  -4.1892893500)


Analysis of symmetry for initial positions (statically):
=====================================================================
 Subroutine PRICEL returns:
 Original cell was already a primitive cell.
 

 Routine SETGRP: Setting up the symmetry group for a 
 base centered orthorhombic supercell.


 Subroutine GETGRP returns: Found  4 space group operations
 (whereof  4 operations were pure point group operations)
 out of a pool of  8 trial point group operations.


The static configuration has the point symmetry C_2v.


Analysis of symmetry for dynamics (positions and initial velocities):
=====================================================================
 Subroutine PRICEL returns:
 Original cell was already a primitive cell.
 

 Routine SETGRP: Setting up the symmetry group for a 
 base centered orthorhombic supercell.


 Subroutine GETGRP returns: Found  4 space group operations
 (whereof  4 operations were pure point group operations)
 out of a pool of  8 trial point group operations.


The dynamic configuration has the point symmetry C_2v.


Analysis of structural, dynamic, and magnetic symmetry:
=====================================================================
 Subroutine PRICEL returns:
 Original cell was already a primitive cell.
 

 Routine SETGRP: Setting up the symmetry group for a 
 base centered orthorhombic supercell.


 Subroutine GETGRP returns: Found  4 space group operations
 (whereof  4 operations were pure point group operations)
 out of a pool of  8 trial point group operations.


The overall configuration has the point symmetry C_2v.


 Subroutine INISYM returns: Found  4 space group operations
 (whereof  4 operations are pure point group operations),
 and found     1 'primitive' translations


----------------------------------------------------------------------------------------

                                     Primitive cell                                     

  volume of cell :     305.3215

  direct lattice vectors                    reciprocal lattice vectors
     0.000000000  0.000000000 -4.189289350    -0.000000000  0.000000000 -0.238703970
    -4.590277740 -7.950594550  0.000000000    -0.109007636 -0.062841171 -0.000000000
    -4.579956170  7.944635390  0.000000000    -0.109089401  0.062982793  0.000000000

  length of vectors
     4.189289350  9.180555725  9.170236093     0.238703970  0.125823994  0.125965589

  position of ions in fractional coordinates (direct lattice)
     0.500000000  0.666723500  0.333449950
     0.500000000  0.333273550  0.666550050
     0.000000000  0.000056440  0.000000000
     0.500000000  0.292854740  0.292909270
     0.500000000  0.999945470  0.707090730
     0.500000000  0.707158070  0.000000000
     0.500000000  0.707152970  0.707076330
     0.500000000  0.000076640  0.292923670
     0.500000000  0.292825710  0.000000000
     0.000000000  0.000000640  0.499988320
     0.000000000  0.499972510  0.000000000
     0.000000000  0.500012320  0.500011680
     0.000000000  0.181509890  0.363004640
     0.000000000  0.181526460  0.818556420
     0.000000000  0.637044790  0.818553790
     0.000000000  0.818505250  0.636995360
     0.000000000  0.362970040  0.181443580
     0.000000000  0.818491000  0.181446210

  ion indices of the primitive-cell ions
   primitive index   ion index
                 1           1
                 2           2
                 3           3
                 4           4
                 5           5
                 6           6
                 7           7
                 8           8
                 9           9
                10          10
                11          11
                12          12
                13          13
                14          14
                15          15
                16          16
                17          17
                18          18

----------------------------------------------------------------------------------------

 
 
 KPOINTS: Kpoints from vasprun.xml                

Automatic generation of k-mesh.
 Grid dimensions read from file:
 generate k-points for:    6    2    2

 Generating k-lattice:

  Cartesian coordinates                     Fractional coordinates (reciprocal lattice)
    -0.000000000  0.000000000 -0.039783995     0.166666667  0.000000000  0.000000000
    -0.054503818 -0.031420586 -0.000000000     0.000000000  0.500000000 -0.000000000
    -0.054544701  0.031491396  0.000000000     0.000000000  0.000000000  0.500000000

  Length of vectors
     0.039783995  0.062911997  0.062982794

  Shift w.r.t. Gamma in fractional coordinates (k-lattice)
     0.000000000  0.000000000  0.000000000

 TETIRR: Found     66 inequivalent tetrahedra from      144
 
 Subroutine IBZKPT returns following result:
 ===========================================
 
 Found     12 irreducible k-points:
 
 Following reciprocal coordinates:
            Coordinates               Weight
  0.000000  0.000000  0.000000      1.000000
  0.166667  0.000000  0.000000      2.000000
  0.333333  0.000000  0.000000      2.000000
  0.500000  0.000000  0.000000      1.000000
  0.000000  0.500000  0.000000      2.000000
  0.166667  0.500000  0.000000      4.000000
  0.333333  0.500000  0.000000      4.000000
  0.500000  0.500000  0.000000      2.000000
  0.000000  0.000000  0.500000      1.000000
  0.166667  0.000000  0.500000      2.000000
  0.333333  0.000000  0.500000      2.000000
  0.500000  0.000000  0.500000      1.000000
 
 Following cartesian coordinates:
            Coordinates               Weight
 -0.000000  0.000000 -0.000000      1.000000
 -0.000000  0.000000 -0.039784      2.000000
 -0.000000  0.000000 -0.079568      2.000000
 -0.000000  0.000000 -0.119352      1.000000
 -0.054504 -0.031421 -0.000000      2.000000
 -0.054504 -0.031421 -0.039784      4.000000
 -0.054504 -0.031421 -0.079568      4.000000
 -0.054504 -0.031421 -0.119352      2.000000
 -0.054545  0.031491 -0.000000      1.000000
 -0.054545  0.031491 -0.039784      2.000000
 -0.054545  0.031491 -0.079568      2.000000
 -0.054545  0.031491 -0.119352      1.000000
 


--------------------------------------------------------------------------------------------------------




 Dimension of arrays:
   k-points           NKPTS =     12   k-points in BZ     NKDIM =     12   number of bands    NBANDS=    168
   number of dos      NEDOS =    301   number of ions     NIONS =     18
   non local maximal  LDIM  =      8   non local SUM 2l+1 LMDIM =     32
   total plane-waves  NPLWV = 156800
   max r-space proj   IRMAX =   9318   max aug-charges    IRDMAX=  29555
   dimension x,y,z NGX =    32 NGY =   70 NGZ =   70
   dimension x,y,z NGXF=    64 NGYF=  140 NGZF=  140
   support grid    NGXF=    64 NGYF=  140 NGZF=  140
   ions per type =               2   1   9   6
   NGX,Y,Z   is equivalent  to a cutoff of  12.70, 12.68, 12.69 a.u.
   NGXF,Y,Z  is equivalent  to a cutoff of  25.40, 25.35, 25.38 a.u.

 SYSTEM =  unknown system                          
 POSCAR =  Ca2 Eu1 Zn9 Ni6                         

 Startparameter for this run:
   NWRITE =      2    write-flag & timer
   PREC   = accura    normal or accurate (medium, high low for compatibility)
   ISTART =      0    job   : 0-new  1-cont  2-samecut
   ICHARG =      1    charge: 1-file 2-atom 10-const
   ISPIN  =      2    spin polarized calculation?
   LNONCOLLINEAR =      F non collinear calculations
   LSORBIT =      F    spin-orbit coupling
   INIWAV =      1    electr: 0-lowe 1-rand  2-diag
   LASPH  =      F    aspherical Exc in radial PAW
 Electronic Relaxation 1
   ENCUT  =  520.0 eV  38.22 Ry    6.18 a.u.   7.79 17.07 17.05*2*pi/ulx,y,z
   ENINI  =  520.0     initial cutoff
   ENAUG  =  703.4 eV  augmentation charge cutoff
   NELM   =   1000;   NELMIN=  2; NELMDL=  0     # of ELM steps 
   EDIFF  = 0.9E-03   stopping-criterion for ELM
   LREAL  =      T    real-space projection
   NLSPLINE    = F    spline interpolate recip. space projectors
   LCOMPAT=      F    compatible to vasp.4.4
   GGA_COMPAT  = T    GGA compatible to vasp.4.4-vasp.4.6
   LMAXPAW     = -100 max onsite density
   LMAXMIX     =    2 max onsite mixed and CHGCAR
   VOSKOWN=      0    Vosko Wilk Nusair interpolation
   ROPT   =   -0.00025  -0.00025  -0.00025  -0.00025
 Ionic relaxation
   EDIFFG = 0.9E-02   stopping-criterion for IOM
   NSW    =     99    number of steps for IOM
   NBLOCK =      1;   KBLOCK =     99    inner block; outer block 
   IBRION =      2    ionic relax: 0-MD 1-quasi-New 2-CG
   NFREE  =      1    steps in history (QN), initial steepest desc. (CG)
   ISIF   =      3    stress and relaxation
   IWAVPR =     11    prediction:  0-non 1-charg 2-wave 3-comb
   ISYM   =      2    0-nonsym 1-usesym 2-fastsym
   LCORR  =      T    Harris-Foulkes like correction to forces

   POTIM  = 0.5000    time-step for ionic-motion
   TEIN   =    0.0    initial temperature
   TEBEG  =    0.0;   TEEND  =   0.0 temperature during run
   SMASS  =  -3.00    Nose mass-parameter (am)
   estimated Nose-frequenzy (Omega)   =  0.10E-29 period in steps = 0.13E+47 mass=  -0.401E-27a.u.
   SCALEE = 1.0000    scale energy and forces
   NPACO  =    256;   APACO  = 10.0  distance and # of slots for P.C.
   PSTRESS=    0.0 pullay stress

  Mass of Ions in am
   POMASS =  40.08151.97 65.39 58.69
  Ionic Valenz
   ZVAL   =  10.00 17.00 12.00 16.00
  Atomic Wigner-Seitz radii
   RWIGS  =  -1.00 -1.00 -1.00 -1.00
  virtual crystal weights 
   VCA    =   1.00  1.00  1.00  1.00
   NELECT =     241.0000    total number of electrons
   NUPDOWN=      -1.0000    fix difference up-down

 DOS related values:
   EMIN   =  10.00;   EMAX   =-10.00  energy-range for DOS
   EFERMI =   0.00
   ISMEAR =    -5;   SIGMA  =   0.05  broadening in eV -4-tet -1-fermi 0-gaus

 Electronic relaxation 2 (details)
   IALGO  =     68    algorithm
   LDIAG  =      T    sub-space diagonalisation (order eigenvalues)
   LSUBROT=      F    optimize rotation matrix (better conditioning)
   TURBO    =      0    0=normal 1=particle mesh
   IRESTART =      0    0=no restart 2=restart with 2 vectors
   NREBOOT  =      0    no. of reboots
   NMIN     =      0    reboot dimension
   EREF     =   0.00    reference energy to select bands
   IMIX   =      4    mixing-type and parameters
     AMIX     =   0.40;   BMIX     =  1.00
     AMIX_MAG =   1.60;   BMIX_MAG =  1.00
     AMIN     =   0.10
     WC   =   100.;   INIMIX=   1;  MIXPRE=   1;  MAXMIX= -45

 Intra band minimization:
   WEIMIN = 0.0010     energy-eigenvalue tresh-hold
   EBREAK =  0.13E-05  absolut break condition
   DEPER  =   0.30     relativ break condition  

   TIME   =   0.40     timestep for ELM

  volume/ion in A,a.u.               =      16.96       114.47
  Fermi-wavevector in a.u.,A,eV,Ry     =   1.512962  2.859084 31.144474  2.289054
  Thomas-Fermi vector in A             =   2.622817
 
 Write flags
   LWAVE        =      F    write WAVECAR
   LDOWNSAMPLE  =      F    k-point downsampling of WAVECAR
   LCHARG       =      T    write CHGCAR
   LVTOT        =      F    write LOCPOT, total local potential
   LVHAR        =      F    write LOCPOT, Hartree potential only
   LELF         =      F    write electronic localiz. function (ELF)
   LORBIT       =     11    0 simple, 1 ext, 2 COOP (PROOUT), +10 PAW based schemes


 Dipole corrections
   LMONO  =      F    monopole corrections only (constant potential shift)
   LDIPOL =      F    correct potential (dipole corrections)
   IDIPOL =      0    1-x, 2-y, 3-z, 4-all directions 
   EPSILON=  1.0000000 bulk dielectric constant

 Exchange correlation treatment:
   GGA     =    --    GGA type
   LEXCH   =     8    internal setting for exchange type
   LIBXC   =     F    Libxc                    
   VOSKOWN =     0    Vosko Wilk Nusair interpolation
   LHFCALC =     F    Hartree Fock is set to
   LHFONE  =     F    Hartree Fock one center treatment
   AEXX    =    0.0000 exact exchange contribution

 Linear response parameters
   LEPSILON=     F    determine dielectric tensor
   LRPA    =     F    only Hartree local field effects (RPA)
   LNABLA  =     F    use nabla operator in PAW spheres
   LVEL    =     F    velocity operator in full k-point grid
   CSHIFT  =0.1000    complex shift for real part using Kramers Kronig
   OMEGAMAX=  -1.0    maximum frequency
   DEG_THRESHOLD= 0.2000000E-02 threshold for treating states as degnerate
   RTIME   =   -0.100 relaxation time in fs
  (WPLASMAI=    0.000 imaginary part of plasma frequency in eV, 0.658/RTIME)
   DFIELD  = 0.0000000 0.0000000 0.0000000 field for delta impulse in time
 
  Optional k-point grid parameters
   LKPOINTS_OPT  =     F    use optional k-point grid
   KPOINTS_OPT_MODE=     1    mode for optional k-point grid
 
 Orbital magnetization related:
   ORBITALMAG=     F  switch on orbital magnetization
   LCHIMAG   =     F  perturbation theory with respect to B field
   DQ        =  0.001000  dq finite difference perturbation B field
   LLRAUG    =     F  two centre corrections for induced B field



--------------------------------------------------------------------------------------------------------


 conjugate gradient relaxation of ions
 charge density and potential will be updated during run
 spin polarized calculation
 RMM-DIIS sequential band-by-band and
  variant of blocked Davidson during initial phase
 perform sub-space diagonalisation
    before iterative eigenvector-optimisation
 modified Broyden-mixing scheme, WC =      100.0
 initial mixing is a Kerker type mixing with AMIX =  0.4000 and BMIX =      1.0000
 Hartree-type preconditioning will be used
 using additional bands            47
 real space projection scheme for non local part
 use partial core corrections
 calculate Harris-corrections to forces 
   (improved forces if not selfconsistent)
 use gradient corrections 
 use of overlap-Matrix (Vanderbilt PP)
 Fermi weights with tetrahedron method with Bloechl corrections


--------------------------------------------------------------------------------------------------------


  energy-cutoff  :      520.00
  volume of cell :      305.32
      direct lattice vectors                 reciprocal lattice vectors
     0.000000000  0.000000000 -4.189289350    -0.000000000  0.000000000 -0.238703970
    -4.590277740 -7.950594550  0.000000000    -0.109007636 -0.062841171 -0.000000000
    -4.579956170  7.944635390  0.000000000    -0.109089401  0.062982793  0.000000000

  length of vectors
     4.189289350  9.180555725  9.170236093     0.238703970  0.125823994  0.125965589


 
 k-points in units of 2pi/SCALE and weight: Kpoints from vasprun.xml                
  -0.00000000  0.00000000 -0.00000000       0.042
  -0.00000000  0.00000000 -0.03978400       0.083
  -0.00000000  0.00000000 -0.07956799       0.083
  -0.00000000  0.00000000 -0.11935199       0.042
  -0.05450382 -0.03142059 -0.00000000       0.083
  -0.05450382 -0.03142059 -0.03978400       0.167
  -0.05450382 -0.03142059 -0.07956799       0.167
  -0.05450382 -0.03142059 -0.11935199       0.083
  -0.05454470  0.03149140 -0.00000000       0.042
  -0.05454470  0.03149140 -0.03978400       0.083
  -0.05454470  0.03149140 -0.07956799       0.083
  -0.05454470  0.03149140 -0.11935199       0.042
 
 k-points in reciprocal lattice and weights: Kpoints from vasprun.xml                
   0.00000000  0.00000000  0.00000000       0.042
   0.16666667  0.00000000  0.00000000       0.083
   0.33333333  0.00000000  0.00000000       0.083
   0.50000000  0.00000000  0.00000000       0.042
   0.00000000  0.50000000  0.00000000       0.083
   0.16666667  0.50000000  0.00000000       0.167
   0.33333333  0.50000000  0.00000000       0.167
   0.50000000  0.50000000  0.00000000       0.083
   0.00000000  0.00000000  0.50000000       0.042
   0.16666667  0.00000000  0.50000000       0.083
   0.33333333  0.00000000  0.50000000       0.083
   0.50000000  0.00000000  0.50000000       0.042
 
 position of ions in fractional coordinates (direct lattice) 
   0.50000000  0.66672350  0.33344995
   0.50000000  0.33327355  0.66655005
   0.00000000  0.00005644  0.00000000
   0.50000000  0.29285474  0.29290927
   0.50000000  0.99994547  0.70709073
   0.50000000  0.70715807  0.00000000
   0.50000000  0.70715297  0.70707633
   0.50000000  0.00007664  0.29292367
   0.50000000  0.29282571  0.00000000
   0.00000000  0.00000064  0.49998832
   0.00000000  0.49997251  0.00000000
   0.00000000  0.50001232  0.50001168
   0.00000000  0.18150989  0.36300464
   0.00000000  0.18152646  0.81855642
   0.00000000  0.63704479  0.81855379
   0.00000000  0.81850525  0.63699536
   0.00000000  0.36297004  0.18144358
   0.00000000  0.81849100  0.18144621
 
 position of ions in cartesian coordinates  (Angst):
  -4.58763220 -2.65170995 -2.09464468
  -4.58258817  2.64577425 -2.09464468
  -0.00025908 -0.00044873  0.00000000
  -2.68579621 -0.00131195 -2.09464468
  -7.82847198 -2.33258297 -2.09464468
  -3.24605195 -5.62232710 -2.09464468
  -6.48440714 -0.00482291 -2.09464468
  -1.34192937  2.32656242 -2.09464468
  -1.34415134 -2.32813849 -2.09464468
  -2.28992753  3.97221981  0.00000000
  -2.29501268 -3.97507871  0.00000000
  -4.58522700 -0.00298474  0.00000000
  -2.49572615  1.44082797  0.00000000
  -4.58220939  5.05988902  0.00000000
  -6.67315300  1.43822657  0.00000000
  -6.67457726 -1.44690750  0.00000000
  -2.49713694 -1.44432453  0.00000000
  -4.58811671 -5.06596610  0.00000000
 


--------------------------------------------------------------------------------------------------------


 k-point   1 :   0.0000 0.0000 0.0000  plane waves:    8187
 k-point   2 :   0.1667 0.0000 0.0000  plane waves:    8217
 k-point   3 :   0.3333 0.0000 0.0000  plane waves:    8184
 k-point   4 :   0.5000 0.0000 0.0000  plane waves:    8208
 k-point   5 :   0.0000 0.5000 0.0000  plane waves:    8234
 k-point   6 :   0.1667 0.5000 0.0000  plane waves:    8224
 k-point   7 :   0.3333 0.5000 0.0000  plane waves:    8236
 k-point   8 :   0.5000 0.5000 0.0000  plane waves:    8232
 k-point   9 :   0.0000 0.0000 0.5000  plane waves:    8228
 k-point  10 :   0.1667 0.0000 0.5000  plane waves:    8220
 k-point  11 :   0.3333 0.0000 0.5000  plane waves:    8242
 k-point  12 :   0.5000 0.0000 0.5000  plane waves:    8228

 maximum and minimum number of plane-waves per node :      8242     8184

 maximum number of plane-waves:      8242
 maximum index in each direction: 
   IXMAX=    7   IYMAX=   17   IZMAX=   17
   IXMIN=   -8   IYMIN=  -17   IZMIN=  -17


 serial   3D FFT for wavefunctions
 parallel 3D FFT for charge:
    minimum data exchange during FFTs selected (reduces bandwidth)


 total amount of memory used by VASP MPI-rank0   247420. kBytes
=======================================================================

   base      :      30000. kBytes
   nonlr-proj:      22831. kBytes
   fftplans  :      11299. kBytes
   grid      :      43079. kBytes
   one-center:       1769. kBytes
   wavefun   :     138442. kBytes
 
     INWAV:  cpu time      0.0001: real time      0.0004
 Broyden mixing: mesh for mixing (old mesh)
   NGX = 15   NGY = 35   NGZ = 35
  (NGX  = 64   NGY  =140   NGZ  =140)
  gives a total of  18375 points

 initial charge density was supplied:
 charge density of overlapping atoms calculated
 number of electron     241.0000000 magnetization      43.6000000
 keeping initial charge density in first step


--------------------------------------------------------------------------------------------------------


 Maximum index for non-local projection operator          8991
 Maximum index for augmentation-charges          7185 (set IRDMAX)


--------------------------------------------------------------------------------------------------------


 First call to EWALD:  gamma=   0.263
 Maximum number of real-space cells 4x 2x 2
 Maximum number of reciprocal cells 2x 4x 4

    FEWALD:  cpu time      0.0011: real time      0.0011


--------------------------------------- Iteration      1(   1)  ---------------------------------------


    POTLOK:  cpu time      0.1011: real time      0.1537
    SETDIJ:  cpu time      0.0265: real time      0.0265
     EDDAV:  cpu time      4.8054: real time      4.8128
 BZINTS: Fermi energy:   24.362512;  241.000000 electrons
         Band energy: 0.554343E+03;  BLOECHL correction:   -0.158167
       DOS:  cpu time      0.0934: real time      0.0935
    --------------------------------------------
      LOOP:  cpu time      5.0265: real time      5.0865

 eigenvalue-minimisations  : 10416
 total energy-change (2. order) : 0.3097581E+04  (-0.1132154E+05)
 number of electron     241.0000000 magnetization      43.6000000
 augmentation part      241.0000000 magnetization      43.6000000

 Free energy of the ion-electron system (eV)
  ---------------------------------------------------
  alpha Z        PSCENC =      1872.80561309
  Ewald energy   TEWEN  =    -25230.00580892
  -Hartree energ DENC   =    -14152.10181449
  -exchange      EXHF   =         0.00000000
  -V(xc)+E(xc)   XCENC  =      1233.11405265
  PAW double counting   =     34272.58465203   -36831.02025880
  entropy T*S    EENTRO =         0.00000000
  eigenvalues    EBANDS =       554.34279157
  atomic energy  EATOM  =     41377.86175746
  Solvation  Ediel_sol  =         0.00000000
  ---------------------------------------------------
  free energy    TOTEN  =      3097.58098460 eV

  energy without entropy =     3097.58098460  energy(sigma->0) =     3097.58098460


--------------------------------------------------------------------------------------------------------




--------------------------------------- Iteration      1(   2)  ---------------------------------------


     EDDAV:  cpu time      4.0151: real time      4.0175
 BZINTS: Fermi energy:    9.362089;  241.000000 electrons
         Band energy:-0.204587E+04;  BLOECHL correction:   -0.054651
       DOS:  cpu time      0.0897: real time      0.0901
    --------------------------------------------
      LOOP:  cpu time      4.1048: real time      4.1076

 eigenvalue-minimisations  :  8264
 total energy-change (2. order) :-0.2600216E+04  (-0.2407931E+04)
 number of electron     241.0000000 magnetization      43.6000000
 augmentation part      241.0000000 magnetization      43.6000000

 Free energy of the ion-electron system (eV)
  ---------------------------------------------------
  alpha Z        PSCENC =      1872.80561309
  Ewald energy   TEWEN  =    -25230.00580892
  -Hartree energ DENC   =    -14152.10181449
  -exchange      EXHF   =         0.00000000
  -V(xc)+E(xc)   XCENC  =      1233.11405265
  PAW double counting   =     34272.58465203   -36831.02025880
  entropy T*S    EENTRO =         0.00000000
  eigenvalues    EBANDS =     -2045.87311695
  atomic energy  EATOM  =     41377.86175746
  Solvation  Ediel_sol  =         0.00000000
  ---------------------------------------------------
  free energy    TOTEN  =       497.36507607 eV

  energy without entropy =      497.36507607  energy(sigma->0) =      497.36507607


--------------------------------------------------------------------------------------------------------




--------------------------------------- Iteration      1(   3)  ---------------------------------------


     EDDAV:  cpu time      3.9497: real time      3.9527
 BZINTS: Fermi energy:    5.805343;  241.000000 electrons
         Band energy:-0.254605E+04;  BLOECHL correction:   -0.036953
       DOS:  cpu time      0.0815: real time      0.0815
    --------------------------------------------
      LOOP:  cpu time      4.0312: real time      4.0342

 eigenvalue-minimisations  :  8080
 total energy-change (2. order) :-0.5001777E+03  (-0.4588559E+03)
 number of electron     241.0000000 magnetization      43.6000000
 augmentation part      241.0000000 magnetization      43.6000000

 Free energy of the ion-electron system (eV)
  ---------------------------------------------------
  alpha Z        PSCENC =      1872.80561309
  Ewald energy   TEWEN  =    -25230.00580892
  -Hartree energ DENC   =    -14152.10181449
  -exchange      EXHF   =         0.00000000
  -V(xc)+E(xc)   XCENC  =      1233.11405265
  PAW double counting   =     34272.58465203   -36831.02025880
  entropy T*S    EENTRO =         0.00000000
  eigenvalues    EBANDS =     -2546.05084118
  atomic energy  EATOM  =     41377.86175746
  Solvation  Ediel_sol  =         0.00000000
  ---------------------------------------------------
  free energy    TOTEN  =        -2.81264815 eV

  energy without entropy =       -2.81264815  energy(sigma->0) =       -2.81264815


--------------------------------------------------------------------------------------------------------




--------------------------------------- Iteration      1(   4)  ---------------------------------------


     EDDAV:  cpu time      4.4423: real time      4.4452
 BZINTS: Fermi energy:    5.420288;  241.000000 electrons
         Band energy:-0.259592E+04;  BLOECHL correction:   -0.074541
       DOS:  cpu time      0.0861: real time      0.0862
    --------------------------------------------
      LOOP:  cpu time      4.5284: real time      4.5314

 eigenvalue-minimisations  :  9416
 total energy-change (2. order) :-0.4986928E+02  (-0.4733765E+02)
 number of electron     241.0000000 magnetization      43.6000000
 augmentation part      241.0000000 magnetization      43.6000000

 Free energy of the ion-electron system (eV)
  ---------------------------------------------------
  alpha Z        PSCENC =      1872.80561309
  Ewald energy   TEWEN  =    -25230.00580892
  -Hartree energ DENC   =    -14152.10181449
  -exchange      EXHF   =         0.00000000
  -V(xc)+E(xc)   XCENC  =      1233.11405265
  PAW double counting   =     34272.58465203   -36831.02025880
  entropy T*S    EENTRO =         0.00000000
  eigenvalues    EBANDS =     -2595.92012353
  atomic energy  EATOM  =     41377.86175746
  Solvation  Ediel_sol  =         0.00000000
  ---------------------------------------------------
  free energy    TOTEN  =       -52.68193050 eV

  energy without entropy =      -52.68193050  energy(sigma->0) =      -52.68193050


--------------------------------------------------------------------------------------------------------




--------------------------------------- Iteration      1(   5)  ---------------------------------------


     EDDAV:  cpu time      6.1131: real time      6.1176
 BZINTS: Fermi energy:    5.397092;  241.000000 electrons
         Band energy:-0.259904E+04;  BLOECHL correction:   -0.074331
       DOS:  cpu time      0.0879: real time      0.0879
    CHARGE:  cpu time      0.1424: real time      0.1424
    MIXING:  cpu time      0.0026: real time      0.0026
    --------------------------------------------
      LOOP:  cpu time      6.3460: real time      6.3506

 eigenvalue-minimisations  : 13928
 total energy-change (2. order) :-0.3123397E+01  (-0.3039225E+01)
 number of electron     240.9999937 magnetization      32.4320762
 augmentation part      129.4811250 magnetization      26.1398722

 Broyden mixing:
  rms(total) = 0.65864E+01    rms(broyden)= 0.65861E+01
  rms(prec ) = 0.86950E+01
  weight for this iteration     100.00

 Free energy of the ion-electron system (eV)
  ---------------------------------------------------
  alpha Z        PSCENC =      1872.80561309
  Ewald energy   TEWEN  =    -25230.00580892
  -Hartree energ DENC   =    -14152.10181449
  -exchange      EXHF   =         0.00000000
  -V(xc)+E(xc)   XCENC  =      1233.11405265
  PAW double counting   =     34272.58465203   -36831.02025880
  entropy T*S    EENTRO =         0.00000000
  eigenvalues    EBANDS =     -2599.04352070
  atomic energy  EATOM  =     41377.86175746
  Solvation  Ediel_sol  =         0.00000000
  ---------------------------------------------------
  free energy    TOTEN  =       -55.80532767 eV

  energy without entropy =      -55.80532767  energy(sigma->0) =      -55.80532767


--------------------------------------------------------------------------------------------------------




--------------------------------------- Iteration      1(   6)  ---------------------------------------


    POTLOK:  cpu time      0.0101: real time      0.0109
    SETDIJ:  cpu time      0.0256: real time      0.0256
    EDDIAG:  cpu time      0.2900: real time      0.2901
  RMM-DIIS:  cpu time      2.0266: real time      2.0299
    ORTHCH:  cpu time      0.1139: real time      0.1139
 BZINTS: Fermi energy:    3.580753;  241.000000 electrons
         Band energy:-0.375816E+04;  BLOECHL correction:   -0.271603
       DOS:  cpu time      0.0840: real time      0.0840
    CHARGE:  cpu time      0.1372: real time      0.1372
    MIXING:  cpu time      0.0035: real time      0.0076
    --------------------------------------------
      LOOP:  cpu time      2.6908: real time      2.6992

 eigenvalue-minimisations  :  9337
 total energy-change (2. order) :-0.1354558E+03  (-0.5433618E+02)
 number of electron     240.9999947 magnetization      28.4814820
 augmentation part      143.8206320 magnetization      24.5147747

 Broyden mixing:
  rms(total) = 0.16828E+02    rms(broyden)= 0.16828E+02
  rms(prec ) = 0.19899E+02
  weight for this iteration     100.00

 eigenvalues of (default mixing * dielectric matrix)
  average eigenvalue GAMMA=   0.1516
  0.1516

 Free energy of the ion-electron system (eV)
  ---------------------------------------------------
  alpha Z        PSCENC =      1872.80561309
  Ewald energy   TEWEN  =    -25230.00580892
  -Hartree energ DENC   =    -13171.74769152
  -exchange      EXHF   =         0.00000000
  -V(xc)+E(xc)   XCENC  =      1195.10569095
  PAW double counting   =     33443.52443869   -35920.64963134
  entropy T*S    EENTRO =         0.00000000
  eigenvalues    EBANDS =     -3758.15549394
  atomic energy  EATOM  =     41377.86175746
  Solvation  Ediel_sol  =         0.00000000
  ---------------------------------------------------
  free energy    TOTEN  =      -191.26112553 eV

  energy without entropy =     -191.26112553  energy(sigma->0) =     -191.26112553


--------------------------------------------------------------------------------------------------------




--------------------------------------- Iteration      1(   7)  ---------------------------------------


    POTLOK:  cpu time      0.0096: real time      0.0099
    SETDIJ:  cpu time      0.0257: real time      0.0257
    EDDIAG:  cpu time      0.2899: real time      0.2900
  RMM-DIIS:  cpu time      1.8350: real time      1.8364
    ORTHCH:  cpu time      0.1139: real time      0.1140
 BZINTS: Fermi energy:    1.166888;  241.000000 electrons
         Band energy:-0.348164E+04;  BLOECHL correction:   -0.217048
       DOS:  cpu time      0.0811: real time      0.0811
    CHARGE:  cpu time      0.1361: real time      0.1361
    MIXING:  cpu time      0.0028: real time      0.0028
    --------------------------------------------
      LOOP:  cpu time      2.4941: real time      2.4960

 eigenvalue-minimisations  :  8854
 total energy-change (2. order) : 0.5855162E+02  (-0.1021658E+02)
 number of electron     240.9999940 magnetization      25.7055910
 augmentation part      154.9052770 magnetization      23.2539941

 Broyden mixing:
  rms(total) = 0.10784E+02    rms(broyden)= 0.10784E+02
  rms(prec ) = 0.14964E+02
  weight for this iteration     100.00

 eigenvalues of (default mixing * dielectric matrix)
  average eigenvalue GAMMA=   0.3008
  0.3008  0.3008

 Free energy of the ion-electron system (eV)
  ---------------------------------------------------
  alpha Z        PSCENC =      1872.80561309
  Ewald energy   TEWEN  =    -25230.00580892
  -Hartree energ DENC   =    -13369.72752642
  -exchange      EXHF   =         0.00000000
  -V(xc)+E(xc)   XCENC  =      1196.36526769
  PAW double counting   =     34310.14637956   -36808.51623633
  entropy T*S    EENTRO =         0.00000000
  eigenvalues    EBANDS =     -3481.63895327
  atomic energy  EATOM  =     41377.86175746
  Solvation  Ediel_sol  =         0.00000000
  ---------------------------------------------------
  free energy    TOTEN  =      -132.70950712 eV

  energy without entropy =     -132.70950712  energy(sigma->0) =     -132.70950712


--------------------------------------------------------------------------------------------------------




--------------------------------------- Iteration      1(   8)  ---------------------------------------


    POTLOK:  cpu time      0.0096: real time      0.0104
    SETDIJ:  cpu time      0.0256: real time      0.0257
    EDDIAG:  cpu time      0.2902: real time      0.2904
  RMM-DIIS:  cpu time      1.9313: real time      1.9333
    ORTHCH:  cpu time      0.1136: real time      0.1140
 BZINTS: Fermi energy:    3.844000;  241.000000 electrons
         Band energy:-0.323413E+04;  BLOECHL correction:   -0.278482
       DOS:  cpu time      0.0762: real time      0.0762
    CHARGE:  cpu time      0.1371: real time      0.1371
    MIXING:  cpu time      0.0030: real time      0.0030
    --------------------------------------------
      LOOP:  cpu time      2.5867: real time      2.5902

 eigenvalue-minimisations  :  9383
 total energy-change (2. order) :-0.7263515E+01  (-0.2580968E+01)
 number of electron     240.9999945 magnetization      19.9705752
 augmentation part      140.6892849 magnetization      15.8571872

 Broyden mixing:
  rms(total) = 0.81543E+01    rms(broyden)= 0.81543E+01
  rms(prec ) = 0.12450E+02
  weight for this iteration     100.00

 eigenvalues of (default mixing * dielectric matrix)
  average eigenvalue GAMMA=   0.4148
  0.5558  0.5558  0.1329

 Free energy of the ion-electron system (eV)
  ---------------------------------------------------
  alpha Z        PSCENC =      1872.80561309
  Ewald energy   TEWEN  =    -25230.00580892
  -Hartree energ DENC   =    -13579.54815527
  -exchange      EXHF   =         0.00000000
  -V(xc)+E(xc)   XCENC  =      1202.10514791
  PAW double counting   =     34820.25903829   -37369.32163783
  entropy T*S    EENTRO =         0.00000000
  eigenvalues    EBANDS =     -3234.12897718
  atomic energy  EATOM  =     41377.86175746
  Solvation  Ediel_sol  =         0.00000000
  ---------------------------------------------------
  free energy    TOTEN  =      -139.97302244 eV

  energy without entropy =     -139.97302244  energy(sigma->0) =     -139.97302244


--------------------------------------------------------------------------------------------------------




--------------------------------------- Iteration      1(   9)  ---------------------------------------


    POTLOK:  cpu time      0.0095: real time      0.0101
    SETDIJ:  cpu time      0.0258: real time      0.0258
    EDDIAG:  cpu time      0.2895: real time      0.2895
  RMM-DIIS:  cpu time      2.0132: real time      2.0140
    ORTHCH:  cpu time      0.1137: real time      0.1137
 BZINTS: Fermi energy:    4.229945;  241.000000 electrons
         Band energy:-0.289909E+04;  BLOECHL correction:   -0.195028
       DOS:  cpu time      0.0877: real time      0.0885
    CHARGE:  cpu time      0.1364: real time      0.1365
    MIXING:  cpu time      0.0029: real time      0.0029
    --------------------------------------------
      LOOP:  cpu time      2.6787: real time      2.6811

 eigenvalue-minimisations  :  9749
 total energy-change (2. order) : 0.6947445E+02  (-0.5237510E+01)
 number of electron     240.9999944 magnetization      11.0315345
 augmentation part      135.9376571 magnetization       7.0192772

 Broyden mixing:
  rms(total) = 0.54432E+01    rms(broyden)= 0.54432E+01
  rms(prec ) = 0.92453E+01
  weight for this iteration     100.00

 eigenvalues of (default mixing * dielectric matrix)
  average eigenvalue GAMMA=   0.5786
  0.7220  0.7220  0.7324  0.1380

 Free energy of the ion-electron system (eV)
  ---------------------------------------------------
  alpha Z        PSCENC =      1872.80561309
  Ewald energy   TEWEN  =    -25230.00580892
  -Hartree energ DENC   =    -13827.15950645
  -exchange      EXHF   =         0.00000000
  -V(xc)+E(xc)   XCENC  =      1207.18151831
  PAW double counting   =     35093.72117234   -37665.80913844
  entropy T*S    EENTRO =         0.00000000
  eigenvalues    EBANDS =     -2899.09417816
  atomic energy  EATOM  =     41377.86175746
  Solvation  Ediel_sol  =         0.00000000
  ---------------------------------------------------
  free energy    TOTEN  =       -70.49857077 eV

  energy without entropy =      -70.49857077  energy(sigma->0) =      -70.49857077


--------------------------------------------------------------------------------------------------------




--------------------------------------- Iteration      1(  10)  ---------------------------------------


    POTLOK:  cpu time      0.0096: real time      0.0103
    SETDIJ:  cpu time      0.0254: real time      0.0254
    EDDIAG:  cpu time      0.2903: real time      0.2904
  RMM-DIIS:  cpu time      2.0859: real time      2.0873
    ORTHCH:  cpu time      0.1139: real time      0.1140
 BZINTS: Fermi energy:    2.970082;  241.000000 electrons
         Band energy:-0.294243E+04;  BLOECHL correction:   -0.063436
       DOS:  cpu time      0.0852: real time      0.0853
    CHARGE:  cpu time      0.1366: real time      0.1366
    MIXING:  cpu time      0.0030: real time      0.0030
    --------------------------------------------
      LOOP:  cpu time      2.7499: real time      2.7523

 eigenvalue-minimisations  : 10021
 total energy-change (2. order) :-0.3482506E+02  (-0.5781524E+01)
 number of electron     240.9999936 magnetization       6.4827356
 augmentation part      142.6233196 magnetization       3.2100884

 Broyden mixing:
  rms(total) = 0.67293E+01    rms(broyden)= 0.67292E+01
  rms(prec ) = 0.11620E+02
  weight for this iteration     100.00

 eigenvalues of (default mixing * dielectric matrix)
  average eigenvalue GAMMA=   0.6542
  1.2738  0.6306  0.6306  0.5962  0.1396

 Free energy of the ion-electron system (eV)
  ---------------------------------------------------
  alpha Z        PSCENC =      1872.80561309
  Ewald energy   TEWEN  =    -25230.00580892
  -Hartree energ DENC   =    -13836.97982735
  -exchange      EXHF   =         0.00000000
  -V(xc)+E(xc)   XCENC  =      1204.10101280
  PAW double counting   =     34981.39910997   -37532.07205080
  entropy T*S    EENTRO =         0.00000000
  eigenvalues    EBANDS =     -2942.43343347
  atomic energy  EATOM  =     41377.86175746
  Solvation  Ediel_sol  =         0.00000000
  ---------------------------------------------------
  free energy    TOTEN  =      -105.32362721 eV

  energy without entropy =     -105.32362721  energy(sigma->0) =     -105.32362721


--------------------------------------------------------------------------------------------------------




--------------------------------------- Iteration      1(  11)  ---------------------------------------


    POTLOK:  cpu time      0.0091: real time      0.0102
    SETDIJ:  cpu time      0.0257: real time      0.0258
    EDDIAG:  cpu time      0.2894: real time      0.2896
  RMM-DIIS:  cpu time      1.9365: real time      1.9377
    ORTHCH:  cpu time      0.1138: real time      0.1138
 BZINTS: Fermi energy:    4.237651;  241.000000 electrons
         Band energy:-0.292196E+04;  BLOECHL correction:   -0.198901
       DOS:  cpu time      0.0811: real time      0.0812
    CHARGE:  cpu time      0.1360: real time      0.1360
    MIXING:  cpu time      0.0031: real time      0.0031
    --------------------------------------------
      LOOP:  cpu time      2.5947: real time      2.5973

 eigenvalue-minimisations  :  9273
 total energy-change (2. order) : 0.3426657E+02  (-0.1630199E+01)
 number of electron     240.9999944 magnetization       5.0873034
 augmentation part      136.3898844 magnetization       2.6950525

 Broyden mixing:
  rms(total) = 0.52369E+01    rms(broyden)= 0.52368E+01
  rms(prec ) = 0.90944E+01
  weight for this iteration     100.00

 eigenvalues of (default mixing * dielectric matrix)
  average eigenvalue GAMMA=   0.5968
  1.2449  0.5866  0.5866  0.6447  0.1398  0.3785

 Free energy of the ion-electron system (eV)
  ---------------------------------------------------
  alpha Z        PSCENC =      1872.80561309
  Ewald energy   TEWEN  =    -25230.00580892
  -Hartree energ DENC   =    -13782.88528767
  -exchange      EXHF   =         0.00000000
  -V(xc)+E(xc)   XCENC  =      1202.33788185
  PAW double counting   =     35278.49220639   -37867.70224412
  entropy T*S    EENTRO =         0.00000000
  eigenvalues    EBANDS =     -2921.96117705
  atomic energy  EATOM  =     41377.86175746
  Solvation  Ediel_sol  =         0.00000000
  ---------------------------------------------------
  free energy    TOTEN  =       -71.05705896 eV

  energy without entropy =      -71.05705896  energy(sigma->0) =      -71.05705896


--------------------------------------------------------------------------------------------------------




--------------------------------------- Iteration      1(  12)  ---------------------------------------


    POTLOK:  cpu time      0.0095: real time      0.0100
    SETDIJ:  cpu time      0.0251: real time      0.0251
    EDDIAG:  cpu time      0.2896: real time      0.2897
  RMM-DIIS:  cpu time      1.9317: real time      1.9325
    ORTHCH:  cpu time      0.1139: real time      0.1139
 BZINTS: Fermi energy:    3.254061;  241.000000 electrons
         Band energy:-0.288747E+04;  BLOECHL correction:   -0.019172
       DOS:  cpu time      0.0881: real time      0.0881
    CHARGE:  cpu time      0.1355: real time      0.1356
    MIXING:  cpu time      0.0033: real time      0.0033
    --------------------------------------------
      LOOP:  cpu time      2.5967: real time      2.5983

 eigenvalue-minimisations  :  9294
 total energy-change (2. order) : 0.1500144E+02  (-0.3559243E+00)
 number of electron     240.9999942 magnetization       4.2883631
 augmentation part      141.0017113 magnetization       2.8584320

 Broyden mixing:
  rms(total) = 0.16048E+01    rms(broyden)= 0.16046E+01
  rms(prec ) = 0.24097E+01
  weight for this iteration     100.00

 eigenvalues of (default mixing * dielectric matrix)
  average eigenvalue GAMMA=   0.5668
  1.2644  0.5860  0.5860  0.6431  0.1399  0.3741  0.3741

 Free energy of the ion-electron system (eV)
  ---------------------------------------------------
  alpha Z        PSCENC =      1872.80561309
  Ewald energy   TEWEN  =    -25230.00580892
  -Hartree energ DENC   =    -13807.83913793
  -exchange      EXHF   =         0.00000000
  -V(xc)+E(xc)   XCENC  =      1202.33431774
  PAW double counting   =     35305.78607065   -37889.52740498
  entropy T*S    EENTRO =         0.00000000
  eigenvalues    EBANDS =     -2887.47102871
  atomic energy  EATOM  =     41377.86175746
  Solvation  Ediel_sol  =         0.00000000
  ---------------------------------------------------
  free energy    TOTEN  =       -56.05562160 eV

  energy without entropy =      -56.05562160  energy(sigma->0) =      -56.05562160


--------------------------------------------------------------------------------------------------------




--------------------------------------- Iteration      1(  13)  ---------------------------------------


    POTLOK:  cpu time      0.0095: real time      0.0102
    SETDIJ:  cpu time      0.0249: real time      0.0250
    EDDIAG:  cpu time      0.2900: real time      0.2900
  RMM-DIIS:  cpu time      2.0995: real time      2.1007
    ORTHCH:  cpu time      0.1138: real time      0.1138
 BZINTS: Fermi energy:    4.005105;  241.000000 electrons
         Band energy:-0.287666E+04;  BLOECHL correction:   -0.093902
       DOS:  cpu time      0.0872: real time      0.0872
    CHARGE:  cpu time      0.1358: real time      0.1358
    MIXING:  cpu time      0.0032: real time      0.0032
    --------------------------------------------
      LOOP:  cpu time      2.7638: real time      2.7658

 eigenvalue-minimisations  : 10186
 total energy-change (2. order) :-0.2893085E+01  (-0.4869064E-01)
 number of electron     240.9999942 magnetization       3.4626333
 augmentation part      137.0482087 magnetization       2.0422412

 Broyden mixing:
  rms(total) = 0.33796E+01    rms(broyden)= 0.33796E+01
  rms(prec ) = 0.59039E+01
  weight for this iteration     100.00

 eigenvalues of (default mixing * dielectric matrix)
  average eigenvalue GAMMA=   0.5554
  1.2944  0.5414  0.5414  0.5949  0.5949  0.5057  0.1400  0.2305

 Free energy of the ion-electron system (eV)
  ---------------------------------------------------
  alpha Z        PSCENC =      1872.80561309
  Ewald energy   TEWEN  =    -25230.00580892
  -Hartree energ DENC   =    -13819.70382443
  -exchange      EXHF   =         0.00000000
  -V(xc)+E(xc)   XCENC  =      1202.64238333
  PAW double counting   =     35333.85035430   -37919.74071952
  entropy T*S    EENTRO =         0.00000000
  eigenvalues    EBANDS =     -2876.65846159
  atomic energy  EATOM  =     41377.86175746
  Solvation  Ediel_sol  =         0.00000000
  ---------------------------------------------------
  free energy    TOTEN  =       -58.94870627 eV

  energy without entropy =      -58.94870627  energy(sigma->0) =      -58.94870627


--------------------------------------------------------------------------------------------------------




--------------------------------------- Iteration      1(  14)  ---------------------------------------


    POTLOK:  cpu time      0.0092: real time      0.0104
    SETDIJ:  cpu time      0.0253: real time      0.0253
    EDDIAG:  cpu time      0.2895: real time      0.2896
  RMM-DIIS:  cpu time      2.0518: real time      2.0529
    ORTHCH:  cpu time      0.1138: real time      0.1139
 BZINTS: Fermi energy:    2.837903;  241.000000 electrons
         Band energy:-0.287233E+04;  BLOECHL correction:   -0.073937
       DOS:  cpu time      0.0894: real time      0.0894
    CHARGE:  cpu time      0.1357: real time      0.1358
    MIXING:  cpu time      0.0034: real time      0.0034
    --------------------------------------------
      LOOP:  cpu time      2.7181: real time      2.7207

 eigenvalue-minimisations  :  9809
 total energy-change (2. order) :-0.2047072E+01  (-0.2288690E+00)
 number of electron     240.9999937 magnetization       3.4128005
 augmentation part      142.7228317 magnetization       2.3224689

 Broyden mixing:
  rms(total) = 0.43820E+01    rms(broyden)= 0.43819E+01
  rms(prec ) = 0.81165E+01
  weight for this iteration     100.00

 eigenvalues of (default mixing * dielectric matrix)
  average eigenvalue GAMMA=   0.4949
  1.2966  0.5412  0.5412  0.5932  0.5932  0.5050  0.1400  0.2345  0.0091

 Free energy of the ion-electron system (eV)
  ---------------------------------------------------
  alpha Z        PSCENC =      1872.80561309
  Ewald energy   TEWEN  =    -25230.00580892
  -Hartree energ DENC   =    -13833.31853545
  -exchange      EXHF   =         0.00000000
  -V(xc)+E(xc)   XCENC  =      1202.71127848
  PAW double counting   =     35309.81214132   -37888.52770534
  entropy T*S    EENTRO =         0.00000000
  eigenvalues    EBANDS =     -2872.33451878
  atomic energy  EATOM  =     41377.86175746
  Solvation  Ediel_sol  =         0.00000000
  ---------------------------------------------------
  free energy    TOTEN  =       -60.99577812 eV

  energy without entropy =      -60.99577812  energy(sigma->0) =      -60.99577812


--------------------------------------------------------------------------------------------------------




--------------------------------------- Iteration      1(  15)  ---------------------------------------


    POTLOK:  cpu time      0.0096: real time      0.0100
    SETDIJ:  cpu time      0.0284: real time      0.0289
    EDDIAG:  cpu time      0.2906: real time      0.2907
  RMM-DIIS:  cpu time      2.1363: real time      2.1375
    ORTHCH:  cpu time      0.1140: real time      0.1140
 BZINTS: Fermi energy:    2.942753;  241.000000 electrons
         Band energy:-0.287002E+04;  BLOECHL correction:   -0.062488
       DOS:  cpu time      0.0852: real time      0.0852
    CHARGE:  cpu time      0.1369: real time      0.1370
    MIXING:  cpu time      0.0035: real time      0.0035
    --------------------------------------------
      LOOP:  cpu time      2.8043: real time      2.8068

 eigenvalue-minimisations  : 10135
 total energy-change (2. order) : 0.2302340E+01  (-0.1635173E-01)
 number of electron     240.9999938 magnetization       2.9281974
 augmentation part      142.2514159 magnetization       1.9207729

 Broyden mixing:
  rms(total) = 0.36529E+01    rms(broyden)= 0.36529E+01
  rms(prec ) = 0.67512E+01
  weight for this iteration     100.00

 eigenvalues of (default mixing * dielectric matrix)
  average eigenvalue GAMMA=   0.4654
  1.3063  0.5377  0.5377  0.5655  0.5655  0.5217  0.1400  0.2410  0.1190  0.1190

 Free energy of the ion-electron system (eV)
  ---------------------------------------------------
  alpha Z        PSCENC =      1872.80561309
  Ewald energy   TEWEN  =    -25230.00580892
  -Hartree energ DENC   =    -13832.22192021
  -exchange      EXHF   =         0.00000000
  -V(xc)+E(xc)   XCENC  =      1202.71003475
  PAW double counting   =     35316.62606313   -37896.44832264
  entropy T*S    EENTRO =         0.00000000
  eigenvalues    EBANDS =     -2870.02085486
  atomic energy  EATOM  =     41377.86175746
  Solvation  Ediel_sol  =         0.00000000
  ---------------------------------------------------
  free energy    TOTEN  =       -58.69343821 eV

  energy without entropy =      -58.69343821  energy(sigma->0) =      -58.69343821


--------------------------------------------------------------------------------------------------------




--------------------------------------- Iteration      1(  16)  ---------------------------------------


    POTLOK:  cpu time      0.0097: real time      0.0104
    SETDIJ:  cpu time      0.0259: real time      0.0259
    EDDIAG:  cpu time      0.2898: real time      0.2899
  RMM-DIIS:  cpu time      1.9181: real time      1.9189
    ORTHCH:  cpu time      0.1140: real time      0.1141
 BZINTS: Fermi energy:    2.969751;  241.000000 electrons
[...]
 -0.001   0.000   0.000  -0.000   7.070  -0.000   0.000   7.559
 -0.000  -0.000   0.001  -0.000  -0.000  -0.001   0.000  -0.001
  0.000   0.000   0.000  -0.000  -0.000  -0.000   0.000   0.000
  0.010   0.002   0.000   0.000  -0.001  -0.000  -0.000   0.001
  0.000   0.000  -0.000   0.001   0.000   0.000  -0.001  -0.000
  0.000   0.000   0.001  -0.000   0.001  -0.002   0.000  -0.001
 -0.000  -0.000   0.001  -0.000  -0.000  -0.001   0.000  -0.000
  0.000   0.000   0.000  -0.000  -0.000  -0.000   0.000   0.000
  0.013   0.002   0.000   0.000  -0.001  -0.000  -0.000   0.001
  0.000   0.000  -0.000   0.001   0.000   0.000  -0.001  -0.000
  0.000   0.000   0.001  -0.000   0.001  -0.002   0.000  -0.001
 pseudopotential strength for first ion, spin component:            2
-18.451  -4.936  -0.000   0.000   0.001   0.001  -0.000  -0.001
 -4.936  -1.694  -0.000   0.000   0.000  -0.000   0.000   0.000
 -0.000  -0.000 -19.987   0.000   0.000   7.070  -0.000  -0.000
  0.000   0.000   0.000 -19.971  -0.000  -0.000   7.055   0.000
  0.001   0.000   0.000  -0.000 -19.987  -0.000   0.000   7.070
  0.001  -0.000   7.070  -0.000  -0.000   7.559   0.000   0.000
 -0.000   0.000  -0.000   7.055   0.000   0.000   7.567  -0.000
 -0.001   0.000  -0.000   0.000   7.070   0.000  -0.000   7.559
  0.000  -0.000   0.001   0.000  -0.000  -0.001  -0.000  -0.001
  0.000   0.000   0.000  -0.000   0.000  -0.000   0.000  -0.000
  0.009   0.002   0.000   0.000  -0.000  -0.000  -0.000   0.000
 -0.000  -0.000   0.000   0.001   0.000  -0.000  -0.001  -0.000
 -0.000   0.000   0.001   0.000   0.001  -0.002  -0.000  -0.001
  0.000  -0.000   0.001   0.000   0.000  -0.001  -0.000  -0.001
  0.000   0.000   0.000  -0.000   0.000  -0.000   0.000  -0.000
  0.010   0.002   0.000   0.000  -0.000  -0.000  -0.000   0.000
 -0.000  -0.000   0.000   0.001   0.000  -0.000  -0.001  -0.000
 -0.000   0.000   0.001   0.000   0.001  -0.002  -0.000  -0.001
 total augmentation occupancy for first ion, spin component:            1
  2.000   0.001   0.000   0.000  -0.000   0.000   0.000  -0.000   0.000   0.000  -0.001   0.000  -0.000   0.000   0.000  -0.001
  0.001   0.728   0.000   0.000  -0.000   0.000   0.000  -0.001   0.001   0.000  -0.013   0.000  -0.000  -0.000   0.000   0.010
  0.000   0.000   2.003   0.000   0.000   0.004   0.000   0.000  -0.000   0.000  -0.000   0.000  -0.004  -0.000   0.000  -0.000
  0.000   0.000   0.000   2.003   0.000   0.000   0.001   0.000   0.000   0.000   0.000  -0.000   0.000   0.000   0.000   0.000
 -0.000  -0.000   0.000   0.000   2.003   0.000   0.000   0.004  -0.004   0.000   0.000   0.000  -0.000   0.001   0.000   0.000
  0.000   0.000   0.004   0.000   0.000   0.028   0.000   0.000  -0.000   0.000  -0.000   0.000   0.012   0.000   0.000   0.000
  0.000   0.000   0.000   0.001   0.000   0.000   0.031   0.000   0.000   0.000   0.000  -0.000   0.000   0.000  -0.000   0.000
 -0.000  -0.001   0.000   0.000   0.004   0.000   0.000   0.028   0.013   0.000   0.000   0.000  -0.000  -0.005   0.000  -0.000
  0.000   0.001  -0.000   0.000  -0.004  -0.000   0.000   0.013   0.160   0.000  -0.001   0.000   0.001  -0.069   0.000   0.000
  0.000   0.000   0.000   0.000   0.000   0.000   0.000   0.000   0.000   0.178   0.000  -0.001   0.000   0.000  -0.071   0.000
 -0.001  -0.013  -0.000   0.000   0.000  -0.000   0.000   0.000  -0.001   0.000   0.114   0.000   0.000   0.000   0.000  -0.049
  0.000   0.000   0.000  -0.000   0.000   0.000  -0.000   0.000   0.000  -0.001   0.000   0.178   0.000   0.000   0.000   0.000
 -0.000  -0.000  -0.004   0.000  -0.000   0.012   0.000  -0.000   0.001   0.000   0.000   0.000   0.160  -0.000   0.000  -0.000
  0.000  -0.000  -0.000   0.000   0.001   0.000   0.000  -0.005  -0.069   0.000   0.000   0.000  -0.000   0.031   0.000  -0.000
  0.000   0.000   0.000   0.000   0.000   0.000  -0.000   0.000   0.000  -0.071   0.000   0.000   0.000   0.000   0.029   0.000
 -0.001   0.010  -0.000   0.000   0.000   0.000   0.000  -0.000   0.000   0.000  -0.049   0.000  -0.000  -0.000   0.000   0.022
  0.000   0.000   0.000  -0.000   0.000   0.000   0.000   0.000   0.000   0.000   0.000  -0.071   0.000   0.000  -0.000   0.000
 -0.000   0.000   0.001   0.000  -0.000  -0.005   0.000   0.000  -0.000   0.000  -0.000   0.000  -0.069   0.000   0.000   0.000
 total augmentation occupancy for first ion, spin component:            2
 -0.000  -0.000  -0.000   0.000   0.000  -0.000   0.000   0.000  -0.000   0.000   0.000   0.000   0.000   0.000   0.000  -0.000
 -0.000  -0.002   0.000   0.000  -0.000  -0.000   0.000   0.000  -0.000   0.000  -0.003   0.000   0.000  -0.000   0.000   0.001
 -0.000   0.000  -0.000   0.000   0.000  -0.000   0.000   0.000   0.000   0.000   0.000   0.000   0.000  -0.000   0.000  -0.000
  0.000   0.000   0.000  -0.000   0.000   0.000   0.000   0.000   0.000  -0.000   0.000   0.000   0.000   0.000  -0.000   0.000
  0.000  -0.000   0.000   0.000  -0.000   0.000   0.000  -0.000  -0.000   0.000  -0.000   0.000   0.000   0.000   0.000   0.000
 -0.000  -0.000  -0.000   0.000   0.000   0.000   0.000   0.000   0.000   0.000   0.000   0.000  -0.001  -0.000   0.000  -0.000
  0.000   0.000   0.000   0.000   0.000   0.000  -0.000   0.000   0.000   0.000   0.000  -0.000   0.000   0.000  -0.000   0.000
  0.000   0.000   0.000   0.000  -0.000   0.000   0.000   0.000  -0.001   0.000  -0.000   0.000   0.000   0.000   0.000   0.000
 -0.000  -0.000   0.000   0.000  -0.000   0.000   0.000  -0.001   0.006   0.000   0.001   0.000   0.003  -0.002   0.000  -0.000
  0.000   0.000   0.000  -0.000   0.000   0.000   0.000   0.000   0.000  -0.001   0.000  -0.000   0.000   0.000   0.000   0.000
  0.000  -0.003   0.000   0.000  -0.000   0.000   0.000  -0.000   0.001   0.000  -0.001   0.000  -0.000  -0.000   0.000   0.000
  0.000   0.000   0.000   0.000   0.000   0.000  -0.000   0.000   0.000  -0.000   0.000  -0.001   0.000   0.000  -0.000   0.000
  0.000   0.000   0.000   0.000   0.000  -0.001   0.000   0.000   0.003   0.000  -0.000   0.000   0.010  -0.001   0.000   0.000
  0.000  -0.000  -0.000   0.000   0.000  -0.000   0.000   0.000  -0.002   0.000  -0.000   0.000  -0.001   0.000   0.000  -0.000
  0.000   0.000   0.000  -0.000   0.000   0.000  -0.000   0.000   0.000   0.000   0.000  -0.000   0.000   0.000  -0.000   0.000
 -0.000   0.001  -0.000   0.000   0.000  -0.000   0.000   0.000  -0.000   0.000   0.000   0.000   0.000  -0.000   0.000  -0.000
  0.000   0.000   0.000   0.000   0.000   0.000   0.000   0.000   0.000  -0.000   0.000   0.000   0.000   0.000   0.000   0.000
 -0.000   0.000   0.000   0.000  -0.000   0.000   0.000  -0.000  -0.001   0.000   0.000   0.000  -0.003   0.000   0.000   0.000


------------------------ aborting loop because EDIFF is reached ----------------------------------------





 total charge

# of ion       s       p       d       f       tot
--------------------------------------------------
    1        2.052   5.854   0.238   0.000   8.145
    2        2.052   5.854   0.238   0.000   8.145
    3        2.142   5.860   0.684   4.301  12.987
    4        0.627   0.490   9.722   0.000  10.839
    5        0.627   0.490   9.722   0.000  10.839
    6        0.627   0.487   9.722   0.000  10.836
    7        0.627   0.490   9.722   0.000  10.839
    8        0.627   0.490   9.722   0.000  10.839
    9        0.627   0.487   9.722   0.000  10.836
   10        0.616   0.474   9.720   0.000  10.810
   11        0.615   0.469   9.719   0.000  10.803
   12        0.616   0.474   9.720   0.000  10.810
   13        0.302   6.170   8.215   0.000  14.687
   14        0.302   6.170   8.207   0.000  14.679
   15        0.302   6.170   8.216   0.000  14.688
   16        0.302   6.170   8.215   0.000  14.687
   17        0.302   6.170   8.207   0.000  14.679
   18        0.302   6.170   8.216   0.000  14.688
--------------------------------------------------
tot         13.668  58.941 137.928   4.301 214.838



 magnetization (x)

# of ion       s       p       d       f       tot
--------------------------------------------------
    1       -0.000  -0.000   0.006   0.000   0.006
    2       -0.000  -0.000   0.006   0.000   0.006
    3       -0.002  -0.001  -0.007  -2.070  -2.080
    4        0.000   0.007  -0.000   0.000   0.007
    5        0.000   0.007  -0.000   0.000   0.007
    6        0.000   0.011  -0.001   0.000   0.010
    7        0.000   0.007  -0.000   0.000   0.007
    8        0.000   0.007  -0.000   0.000   0.007
    9        0.000   0.011  -0.001   0.000   0.010
   10        0.001   0.004   0.000   0.000   0.005
   11       -0.001   0.003   0.000   0.000   0.003
   12        0.001   0.004   0.000   0.000   0.005
   13       -0.000  -0.001   0.011   0.000   0.010
   14        0.001  -0.000   0.033   0.000   0.034
   15        0.001  -0.000   0.033   0.000   0.033
   16       -0.000  -0.001   0.011   0.000   0.010
   17        0.001  -0.000   0.033   0.000   0.034
   18        0.001  -0.000   0.033   0.000   0.033
--------------------------------------------------
tot          0.004   0.055   0.157  -2.070  -1.854
 
    CHARGE:  cpu time      0.1506: real time      0.1507
    FORLOC:  cpu time      0.0022: real time      0.0022
    FORNL :  cpu time      0.7224: real time      0.7226
    STRESS:  cpu time      2.1787: real time      2.1796
    FORCOR:  cpu time      0.0091: real time      0.0091
    FORHAR:  cpu time      0.0025: real time      0.0026
    MIXING:  cpu time      0.0102: real time      0.0102
    OFIELD:  cpu time      0.0000: real time      0.0000

  FORCE on cell =-STRESS in cart. coord.  units (eV):
  Direction    XX          YY          ZZ          XY          YZ          ZX
  --------------------------------------------------------------------------------------
  Alpha Z  1872.80561  1872.80561  1872.80561
  Ewald   -8716.03005 -8721.99058 -7792.04151    -5.16174     0.00000     0.00000
  Hartree  4305.03242  4290.63671  5234.16627   -12.46705     0.00000    -0.00000
  E(xc)   -1534.07658 -1534.04488 -1534.00046     0.03471     0.00000    -0.00000
  Local    1048.57544  1087.06830  -788.60944    33.33253    -0.00000     0.00000
  n-local -1132.01772 -1115.80327 -1097.93198    22.54195     0.00026    -0.00009
  augment  1528.36074  1525.38090  1526.77318    -2.58507    -0.00000     0.00000
  Kinetic  2462.58260  2453.59290  2452.60431     0.20025     0.00008     0.00003
  Fock        0.00000     0.00000     0.00000     0.00000     0.00000     0.00000
  -------------------------------------------------------------------------------------
  Total    -171.84776  -135.27409  -126.23403    31.67374     0.00000     0.00000
  in kB    -901.77262  -709.85195  -662.41419   166.20822     0.00000     0.00000
  external pressure =     -758.01 kB  Pullay stress =        0.00 kB


 VOLUME and BASIS-vectors are now :
 -----------------------------------------------------------------------------
  energy-cutoff  :      520.00
  volume of cell :      305.32
      direct lattice vectors                 reciprocal lattice vectors
     0.000000000  0.000000000 -4.189289350    -0.000000000  0.000000000 -0.238703970
    -4.590277740 -7.950594550  0.000000000    -0.109007636 -0.062841171 -0.000000000
    -4.579956170  7.944635390  0.000000000    -0.109089401  0.062982793  0.000000000

  length of vectors
     4.189289350  9.180555725  9.170236093     0.238703970  0.125823994  0.125965589


 FORCES acting on ions
    electron-ion (+dipol)            ewald-force                    non-local-force                 convergence-correction
 -----------------------------------------------------------------------------------------------
   -.227E+01 0.126E+01 -.142E-12   0.110E+01 -.724E+00 0.321E-14   -.415E-01 0.236E-01 -.125E-21   0.116E+01 -.537E+00 0.118E-10
   0.223E+01 -.134E+01 -.151E-12   -.118E+01 0.594E+00 0.214E-13   0.412E-01 -.241E-01 0.108E-21   -.105E+01 0.740E+00 -.109E-10
   -.137E+00 -.237E+00 0.113E-14   0.321E+00 0.557E+00 -.318E-13   -.149E-02 -.259E-02 -.465E-21   -.175E+00 -.304E+00 -.127E-11
   0.191E+03 0.996E+00 -.267E-12   -.231E+03 0.270E+00 -.753E-13   -.142E+01 0.866E-01 -.291E-21   0.411E+02 -.135E+01 0.174E-10
   -.946E+02 0.166E+03 -.293E-12   0.116E+03 -.200E+03 0.544E-13   0.786E+00 -.119E+01 0.454E-21   -.217E+02 0.349E+02 -.647E-10
   -.968E+02 -.168E+03 -.238E-12   0.116E+03 0.201E+03 0.910E-13   0.522E+00 0.903E+00 0.299E-21   -.196E+02 -.339E+02 0.407E-11
   -.191E+03 -.858E+00 -.241E-12   0.231E+03 -.766E-01 -.152E-14   0.142E+01 -.757E-01 -.102E-21   -.410E+02 0.100E+01 -.179E-10
   0.947E+02 -.166E+03 -.253E-12   -.115E+03 0.200E+03 -.707E-13   -.777E+00 0.119E+01 -.991E-22   0.214E+02 -.350E+02 0.676E-10
   0.967E+02 0.168E+03 -.287E-12   -.116E+03 -.201E+03 0.661E-13   -.533E+00 -.924E+00 -.178E-21   0.197E+02 0.341E+02 -.301E-11
   0.176E+00 -.168E+00 0.215E-14   0.482E-02 0.558E-01 0.969E-14   0.143E-02 0.511E-03 -.255E-21   -.184E+00 0.111E+00 0.130E-11
   0.591E-01 0.102E+00 0.519E-15   -.246E+00 -.426E+00 -.436E-13   -.394E-02 -.683E-02 0.769E-21   0.189E+00 0.327E+00 0.174E-11
   -.234E+00 0.688E-01 0.113E-14   0.459E-01 0.321E-01 -.757E-14   -.271E-03 0.149E-02 0.237E-21   0.188E+00 -.103E+00 0.823E-12
   0.351E+03 -.202E+03 0.315E-15   -.403E+03 0.233E+03 0.877E-13   0.903E+00 -.514E+00 0.140E-22   0.513E+02 -.298E+02 -.108E-09
   0.158E+01 0.404E+03 -.387E-14   0.216E+00 -.466E+03 -.359E-14   -.152E+00 0.111E+01 -.382E-21   -.164E+01 0.604E+02 0.427E-10
   -.349E+03 -.203E+03 -.117E-13   0.403E+03 0.233E+03 -.821E-13   -.102E+01 -.419E+00 -.570E-22   -.529E+02 -.288E+02 -.547E-10
   -.350E+03 0.202E+03 0.182E-13   0.403E+03 -.233E+03 -.417E-13   -.897E+00 0.525E+00 -.311E-22   -.515E+02 0.295E+02 0.107E-09
   0.349E+03 0.203E+03 -.315E-13   -.403E+03 -.233E+03 0.187E-14   0.104E+01 0.423E+00 -.712E-21   0.531E+02 0.288E+02 0.571E-10
   -.177E+01 -.404E+03 -.158E-13   0.140E+00 0.465E+03 0.776E-14   0.146E+00 -.109E+01 -.980E-22   0.148E+01 -.602E+02 -.403E-10
 -----------------------------------------------------------------------------------------------
   0.144E+00 0.249E+00 -.191E-11   0.348E-12 -.114E-12 -.147E-13   0.111E-01 0.192E-01 -.914E-21   -.148E+00 -.256E+00 0.110E-10
 
 
 POSITION                                       TOTAL-FORCE (eV/Angst)
 -----------------------------------------------------------------------------------
     -4.58763     -2.65171     -2.09464        -0.046388      0.024420      0.000000
     -4.58259      2.64577     -2.09464         0.044342     -0.027963      0.000000
     -0.00026     -0.00045      0.00000         0.007277      0.012603      0.000000
     -2.68580     -0.00131     -2.09464        -0.100141      0.006569     -0.000000
     -7.82847     -2.33258     -2.09464         0.055759     -0.083441     -0.000000
     -3.24605     -5.62233     -2.09464         0.043389      0.075152      0.000000
     -6.48441     -0.00482     -2.09464         0.097856     -0.006484      0.000000
     -1.34193      2.32656     -2.09464        -0.054543      0.081504      0.000000
     -1.34415     -2.32814     -2.09464        -0.045604     -0.078988      0.000000
     -2.28993      3.97222      0.00000        -0.001258     -0.001094      0.000000
     -2.29501     -3.97508      0.00000        -0.001988     -0.003443      0.000000
     -4.58523     -0.00298      0.00000        -0.000318     -0.001636      0.000000
     -2.49573      1.44083      0.00000        -0.233587      0.135378      0.000000
     -4.58221      5.05989      0.00000        -0.000604     -0.343356      0.000000
     -6.67315      1.43823      0.00000         0.296588      0.173820      0.000000
     -6.67458     -1.44691      0.00000         0.234034     -0.134604     -0.000000
     -2.49714     -1.44432      0.00000        -0.297052     -0.172201     -0.000000
     -4.58812     -5.06597      0.00000         0.002239      0.343763     -0.000000
 -----------------------------------------------------------------------------------
    total drift:                                0.006827      0.011798      0.000000


--------------------------------------------------------------------------------------------------------



  FREE ENERGIE OF THE ION-ELECTRON SYSTEM (eV)
  ---------------------------------------------------
  free  energy   TOTEN  =       -57.71006858 eV

  energy  without entropy=      -57.71006858  energy(sigma->0) =      -57.71006858
 


--------------------------------------------------------------------------------------------------------


    POTLOK:  cpu time      0.0379: real time      0.0379


--------------------------------------------------------------------------------------------------------


 stress matrix after NEB project (eV)
   -171.84776     31.67374      0.00000
     31.67374   -135.27409      0.00000
      0.00000      0.00000   -126.23403
  FORCES: max atom, RMS     0.343770    0.194205
  FORCE total and by dimension    0.823941    0.343763
  Stress total and by dimension  256.460936  171.847757


--------------------------------------------------------------------------------------------------------


    WAVPRE:  cpu time      0.8389: real time      0.8472
    FEWALD:  cpu time      0.0007: real time      0.0007
    GENKIN:  cpu time      0.0116: real time      0.0116
    ORTHCH:  cpu time      0.4501: real time      0.4503
     LOOP+:  cpu time    313.3759: real time    313.7130
 -----------------------------------------------------------------------------
|                                                                             |
|           W    W    AA    RRRRR   N    N  II  N    N   GGGG   !!!           |
|           W    W   A  A   R    R  NN   N  II  NN   N  G    G  !!!           |
|           W    W  A    A  R    R  N N  N  II  N N  N  G       !!!           |
|           W WW W  AAAAAA  RRRRR   N  N N  II  N  N N  G  GGG   !            |
|           WW  WW  A    A  R   R   N   NN  II  N   NN  G    G                |
|           W    W  A    A  R    R  N    N  II  N    N   GGGG   !!!           |
|                                                                             |
|     Tetrahedron method does not include variations of the Fermi             |
|     occupations, so forces and stress will be inaccurate. We suggest        |
|     using a different smearing scheme ISMEAR = 1 or 2 for metals in         |
|     relaxations.                                                            |
|                                                                             |
 -----------------------------------------------------------------------------



--------------------------------------- Iteration      2(   1)  ---------------------------------------


 -----------------------------------------------------------------------------
|                                                                             |
|     EEEEEEE  RRRRRR   RRRRRR   OOOOOOO  RRRRRR      ###     ###     ###     |
|     E        R     R  R     R  O     O  R     R     ###     ###     ###     |
|     E        R     R  R     R  O     O  R     R     ###     ###     ###     |
|     EEEEE    RRRRRR   RRRRRR   O     O  RRRRRR       #       #       #      |
|     E        R   R    R   R    O     O  R   R                               |
|     E        R    R   R    R   O     O  R    R      ###     ###     ###     |
|     EEEEEEE  R     R  R     R  OOOOOOO  R     R     ###     ###     ###     |
|                                                                             |
|     ERROR FEXCF: supplied exchange-correlation table                        |
|      is too small, maximal index : 4824                                     |
|                                                                             |
|       ---->  I REFUSE TO CONTINUE WITH THIS SICK JOB ... BYE!!! <----       |
|                                                                             |
 -----------------------------------------------------------------------------

