 vasp.6.3.2 27Jun22 (build Jul  3 2023 11:46:21) complex                         
 executed on    LinuxNV_CrayMPICH date 2024.04.21  23:51:59
 running on    4 total cores
 distrk:  each k-point on    4 cores,    1 groups
 distr:  one band on NCORE=   1 cores,    4 groups


--------------------------------------------------------------------------------------------------------


 INCAR:
   ADDGRID = True
   ALGO = Normal
   EDIFF = 0.0014
   ENCUT = 520.0
   IBRION = -1
   ICHARG = 0
   ISIF = 3
   ISMEAR = -5
   ISPIN = 2
   KPOINT_BSE = -1 0 0 0
   LAECHG = True
   LASPH = True
   LCHARG = True
   LELF = True
   LORBIT = 11
   LREAL = Auto
   LVHAR = True
   LWAVE = False
   MAGMOM = 8*0.6 4*7.0 16*0.6
   NELM = 1000
   NSW = 0
   PREC = accurate
   SIGMA = 0.05

 POTCAR:    PAW_PBE Yb_2 06Sep2000                
 POTCAR:    PAW_PBE Eu 23Dec2003                  
 POTCAR:    PAW_PBE O 08Apr2002                   
 POTCAR:    PAW_PBE Yb_2 06Sep2000                
   SHA256 =  447ea688f1b29a5c5d62bbadb2b3e4a6902763696c282b59e85a911f7e119eeb Yb_2/POTCAR           
   COPYR  = (c) Copyright 06Sep2000 Georg Kresse                                                    
   COPYR  = This file is part of the software VASP. Any use, copying, and all other rights are regul
   COPYR  = If you do not have a valid VASP license, you may not use, copy or distribute this file. 
   VRHFIN =Yb : [core=Xe4]                                                                          
   LEXCH  = PE                                                                                      
   EATOM  =   572.3552 eV,   42.0669 Ry                                                             
                                                                                                    
   TITEL  = PAW_PBE Yb_2 06Sep2000                                                                  
   LULTRA =        F    use ultrasoft PP ?                                                          
   IUNSCR =        1    unscreen: 0-lin 1-nonlin 2-no                                               
   RPACOR =    2.400    partial core radius                                                         
   POMASS =  173.040; ZVAL   =    8.000    mass and valenz                                          
   RCORE  =    3.100    outmost cutoff radius                                                       
   RWIGS  =    3.300; RWIGS  =    1.746    wigner-seitz radius (au A)                               
   ENMAX  =  112.578; ENMIN  =   84.433 eV                                                          
   RCLOC  =    2.410    cutoff for local pot                                                        
   LCOR   =        T    correct aug charges                                                         
   LPAW   =        T    paw PP                                                                      
   EAUG   =  301.012                                                                                
   DEXC   =    0.000                                                                                
   RMAX   =    3.170    core radius for proj-oper                                                   
   RAUG   =    1.300    factor for augmentation sphere                                              
   RDEP   =    3.215    radius for radial grids                                                     
   RDEPT  =    2.473    core radius for aug-charge                                                  
                                                                                                    
   Atomic configuration                                                                             
   14 entries                                                                                       
     n  l   j            E        occ.                                                              
     1  0  0.50    -61220.9726   2.0000                                                             
     2  0  0.50    -10371.0425   2.0000                                                             
     2  1  1.50     -9138.3712   6.0000                                                             
     3  0  0.50     -2337.6588   2.0000                                                             
     3  1  1.50     -1966.2680   6.0000                                                             
     3  2  2.50     -1514.8100  10.0000                                                             
     4  0  0.50      -459.9070   2.0000                                                             
     4  1  1.50      -338.0537   6.0000                                                             
     4  2  2.50      -177.8445  10.0000                                                             
     4  3  2.50        -3.0334  14.0000                                                             
     5  0  0.50       -54.9037   2.0000                                                             
     6  0  0.50        -3.9192   2.0000                                                             
     5  1  1.50       -27.4093   6.0000                                                             
     5  2  2.50        -2.0436   0.0000                                                             
   Description                                                                                      
     l       E           TYP  RCUT    TYP  RCUT                                                     
     0     -3.9192173     23  3.100                                                                 
     0     13.6058260     23  3.100                                                                 
     1    -27.4092538     23  3.100                                                                 
     1    -28.7698364     23  3.100                                                                 
     2     -2.0435951     23  3.100                                                                 
     2      2.2720029     23  3.100                                                                 
  local pseudopotential read in
  partial core-charges read in
  partial kinetic energy density read in
  atomic valenz-charges read in
  non local Contribution for L=            0  read in
    real space projection operators read in
  non local Contribution for L=            0  read in
    real space projection operators read in
  non local Contribution for L=            1  read in
    real space projection operators read in
  non local Contribution for L=            1  read in
    real space projection operators read in
  non local Contribution for L=            2  read in
    real space projection operators read in
  non local Contribution for L=            2  read in
    real space projection operators read in
    PAW grid and wavefunctions read in
 
   number of l-projection  operators is LMAX  =            6
   number of lm-projection operators is LMMAX =           18
 
 POTCAR:    PAW_PBE Eu 23Dec2003                  
   SHA256 =  ed303d27e7c5191953f9b15539336e6f36d9037c1d2e92e80c13d733697cb93d Eu/POTCAR             
   COPYR  = (c) Copyright 23Dec2003 Georg Kresse                                                    
   COPYR  = This file is part of the software VASP. Any use, copying, and all other rights are regul
   COPYR  = If you do not have a valid VASP license, you may not use, copy or distribute this file. 
   VRHFIN =Eu : [core=Kr4d]                                                                         
   LEXCH  = PE                                                                                      
   EATOM  =  2619.8085 eV,  192.5505 Ry                                                             
                                                                                                    
   TITEL  = PAW_PBE Eu 23Dec2003                                                                    
   LULTRA =        F    use ultrasoft PP ?                                                          
   IUNSCR =        1    unscreen: 0-lin 1-nonlin 2-no                                               
   RPACOR =    2.300    partial core radius                                                         
   POMASS =  151.965; ZVAL   =   17.000    mass and valenz                                          
   RCORE  =    2.800    outmost cutoff radius                                                       
   RWIGS  =    2.800; RWIGS  =    1.482    wigner-seitz radius (au A)                               
   ENMAX  =  249.668; ENMIN  =  187.251 eV                                                          
   RCLOC  =    2.308    cutoff for local pot                                                        
   LCOR   =        T    correct aug charges                                                         
   LPAW   =        T    paw PP                                                                      
   EAUG   =  549.628                                                                                
   DEXC   =    0.000                                                                                
   RMAX   =    2.870    core radius for proj-oper                                                   
   RAUG   =    1.300    factor for augmentation sphere                                              
   RDEP   =    2.887    radius for radial grids                                                     
   RDEPT  =    2.221    core radius for aug-charge                                                  
                                                                                                    
   Atomic configuration                                                                             
   14 entries                                                                                       
     n  l   j            E        occ.                                                              
     1  0  0.50    -48354.7667   2.0000                                                             
     2  0  0.50     -7939.6472   2.0000                                                             
     2  1  1.50     -7072.6637   6.0000                                                             
     3  0  0.50     -1747.1875   2.0000                                                             
     3  1  1.50     -1477.5221   6.0000                                                             
     3  2  2.50     -1117.4686  10.0000                                                             
     4  0  0.50      -346.8682   2.0000                                                             
     4  1  1.50      -258.1962   6.0000                                                             
     4  2  2.50      -134.7724  10.0000                                                             
     5  0  0.50       -44.6510   2.0000                                                             
     6  0  0.50        -3.6227   2.0000                                                             
     5  1  1.50       -23.7639   6.0000                                                             
     5  2  2.50        -1.3130   0.0000                                                             
     4  3  2.50        -2.7310   7.0000                                                             
   Description                                                                                      
     l       E           TYP  RCUT    TYP  RCUT                                                     
     0    -44.6510453     23  2.400                                                                 
     0     -3.6226685     23  2.400                                                                 
     1    -23.7638687     23  2.400                                                                 
     1     27.2116520     23  2.400                                                                 
     2     -1.3129622     23  2.500                                                                 
     2     13.6058260     23  2.500                                                                 
     3     -2.7309948     23  2.800                                                                 
     3     -3.4014565     23  2.800                                                                 
  local pseudopotential read in
  partial core-charges read in
  partial kinetic energy density read in
  atomic valenz-charges read in
  non local Contribution for L=            0  read in
    real space projection operators read in
  non local Contribution for L=            0  read in
    real space projection operators read in
  non local Contribution for L=            1  read in
    real space projection operators read in
  non local Contribution for L=            1  read in
    real space projection operators read in
  non local Contribution for L=            2  read in
    real space projection operators read in
  non local Contribution for L=            2  read in
    real space projection operators read in
  non local Contribution for L=            3  read in
    real space projection operators read in
  non local Contribution for L=            3  read in
    real space projection operators read in
    PAW grid and wavefunctions read in
 
   number of l-projection  operators is LMAX  =            8
   number of lm-projection operators is LMMAX =           32
 
 POTCAR:    PAW_PBE O 08Apr2002                   
   SHA256 =  818f92134a0a090dccd8ba1447fa70422a3b330e708bb4f08108d8ae51209ddf O/POTCAR              
   COPYR  = (c) Copyright 08Apr2002 Georg Kresse                                                    
   COPYR  = This file is part of the software VASP. Any use, copying, and all other rights are regul
   COPYR  = If you do not have a valid VASP license, you may not use, copy or distribute this file. 
   VRHFIN =O: s2p4                                                                                  
   LEXCH  = PE                                                                                      
   EATOM  =   432.3788 eV,   31.7789 Ry                                                             
                                                                                                    
   TITEL  = PAW_PBE O 08Apr2002                                                                     
   LULTRA =        F    use ultrasoft PP ?                                                          
   IUNSCR =        1    unscreen: 0-lin 1-nonlin 2-no                                               
   RPACOR =    1.200    partial core radius                                                         
   POMASS =   16.000; ZVAL   =    6.000    mass and valenz                                          
   RCORE  =    1.520    outmost cutoff radius                                                       
   RWIGS  =    1.550; RWIGS  =    0.820    wigner-seitz radius (au A)                               
   ENMAX  =  400.000; ENMIN  =  300.000 eV                                                          
   ICORE  =        2    local potential                                                             
   LCOR   =        T    correct aug charges                                                         
   LPAW   =        T    paw PP                                                                      
   EAUG   =  605.392                                                                                
   DEXC   =    0.000                                                                                
   RMAX   =    1.553    core radius for proj-oper                                                   
   RAUG   =    1.300    factor for augmentation sphere                                              
   RDEP   =    1.550    radius for radial grids                                                     
   RDEPT  =    1.329    core radius for aug-charge                                                  
                                                                                                    
   Atomic configuration                                                                             
    4 entries                                                                                       
     n  l   j            E        occ.                                                              
     1  0  0.50      -514.6923   2.0000                                                             
     2  0  0.50       -23.9615   2.0000                                                             
     2  1  0.50        -9.0305   4.0000                                                             
     3  2  1.50        -9.5241   0.0000                                                             
   Description                                                                                      
     l       E           TYP  RCUT    TYP  RCUT                                                     
     0    -23.9615318     23  1.200                                                                 
     0     -9.5240782     23  1.200                                                                 
     1     -9.0304911     23  1.520                                                                 
     1      8.1634956     23  1.520                                                                 
     2     -9.5240782      7  1.500                                                                 
  local pseudopotential read in
  partial core-charges read in
  partial kinetic energy density read in
  kinetic energy density of atom read in
  atomic valenz-charges read in
  non local Contribution for L=            0  read in
    real space projection operators read in
  non local Contribution for L=            0  read in
    real space projection operators read in
  non local Contribution for L=            1  read in
    real space projection operators read in
  non local Contribution for L=            1  read in
    real space projection operators read in
    PAW grid and wavefunctions read in
 
   number of l-projection  operators is LMAX  =            4
   number of lm-projection operators is LMMAX =            8
 
 Optimization of the real space projectors (new method)

 maximal supplied QI-value         = 12.09
 optimisation between [QCUT,QGAM] = [ 11.61, 23.34] = [ 37.75,152.57] Ry 
 Optimized for a Real-space Cutoff    1.89 Angstroem

   l    n(q)    QCUT    max X(q) W(low)/X(q) W(high)/X(q)  e(spline) 
   0     13    11.610    37.655    0.45E-04    0.19E-04    0.34E-06
   0     13    11.610    17.791    0.29E-04    0.15E-04    0.27E-06
   1     13    11.610    36.143    0.15E-04    0.51E-06    0.99E-06
   1     13    11.610    36.445    0.16E-04    0.54E-06    0.10E-05
   2     12    11.610    14.662    0.21E-03    0.42E-03    0.57E-05
   2     12    11.610    15.811    0.17E-03    0.35E-03    0.47E-05
 Optimization of the real space projectors (new method)

 maximal supplied QI-value         = 13.42
 optimisation between [QCUT,QGAM] = [ 11.67, 23.35] = [ 38.16,152.62] Ry 
 Optimized for a Real-space Cutoff    1.63 Angstroem

   l    n(q)    QCUT    max X(q) W(low)/X(q) W(high)/X(q)  e(spline) 
   0     11    11.673    10.400    0.14E-04    0.18E-05    0.24E-07
   0     11    11.673    10.768    0.21E-04    0.32E-05    0.49E-07
   1     11    11.673     4.094    0.40E-05    0.13E-04    0.93E-07
   1     11    11.673     4.009    0.11E-04    0.46E-04    0.33E-06
   2     10    11.673    29.030    0.79E-04    0.60E-04    0.70E-06
   2     10    11.673    19.941    0.80E-04    0.60E-04    0.71E-06
   3     10    11.673    88.889    0.23E-03    0.29E-03    0.30E-06
   3     10    11.673    76.102    0.23E-03    0.30E-03    0.30E-06
 Optimization of the real space projectors (new method)

 maximal supplied QI-value         = 24.76
 optimisation between [QCUT,QGAM] = [ 11.64, 23.27] = [ 37.91,151.63] Ry 
 Optimized for a Real-space Cutoff    1.14 Angstroem

   l    n(q)    QCUT    max X(q) W(low)/X(q) W(high)/X(q)  e(spline) 
   0      8    11.635    20.381    0.10E-03    0.33E-03    0.24E-06
   0      8    11.635    15.268    0.11E-03    0.35E-03    0.26E-06
   1      7    11.635     5.964    0.24E-03    0.31E-03    0.30E-06
   1      7    11.635     5.382    0.22E-03    0.25E-03    0.26E-06
  PAW_PBE Yb_2 06Sep2000                :
 energy of atom  1       EATOM= -572.3552
 kinetic energy error for atom=    0.0001 (will be added to EATOM!!)
  PAW_PBE Eu 23Dec2003                  :
 energy of atom  2       EATOM=-2619.8085
 kinetic energy error for atom=    0.0015 (will be added to EATOM!!)
  PAW_PBE O 08Apr2002                   :
 energy of atom  3       EATOM= -432.3788
 kinetic energy error for atom=    0.0208 (will be added to EATOM!!)
 
 
 POSCAR: Yb8 Eu4 O16
  positions in direct lattice
  No initial velocities read in
 exchange correlation table for  LEXCH =        8
   RHO(1)=    0.500       N(1)  =     2000
   RHO(2)=  100.500       N(2)  =     4000

 VTST: version 4.2, (08/11/21)

 CHAIN: initializing optimizer
 
 OPT: Using VASP Dynamics algorithm
 CHAIN: Read ICHAIN             0
 
 POSCAR: Yb8 Eu4 O16
  positions in direct lattice
  No initial velocities read in
 


--------------------------------------------------------------------------------------------------------


 ion  position               nearest neighbor table
   1  0.250  0.582  0.894-  15 2.23  15 2.23  17 2.26  24 2.30  23 2.42  23 2.42   2 3.41   2 3.41
                             9 3.54  11 3.61  11 3.61  10 3.66  10 3.66   6 3.70   6 3.70   7 4.07
   2  0.750  0.418  0.106-  16 2.23  16 2.23  18 2.26  23 2.30  24 2.42  24 2.42   1 3.41   1 3.41
                            10 3.54  12 3.61  12 3.61   9 3.66   9 3.66   5 3.70   5 3.70   8 4.07
   3  0.750  0.918  0.394-  13 2.23  13 2.23  19 2.26  22 2.30  21 2.42  21 2.42   4 3.41   4 3.41
                            11 3.54   9 3.61   9 3.61  12 3.66  12 3.66   8 3.70   8 3.70   5 4.07
   4  0.250  0.082  0.606-  14 2.23  14 2.23  20 2.26  21 2.30  22 2.42  22 2.42   3 3.41   3 3.41
                            12 3.54  10 3.61  10 3.61  11 3.66  11 3.66   7 3.70   7 3.70   6 4.07
   5  0.250  0.077  0.108-  13 2.24  28 2.30  18 2.34  18 2.34  27 2.35  27 2.35  12 3.17   9 3.27
                             6 3.40   6 3.40   2 3.70   2 3.70   3 4.07   3 4.07
   6  0.750  0.923  0.892-  14 2.24  27 2.30  17 2.34  17 2.34  28 2.35  28 2.35  11 3.17  10 3.27
                             5 3.40   5 3.40   1 3.70   1 3.70   4 4.07   4 4.07
   7  0.750  0.423  0.608-  15 2.24  26 2.30  20 2.34  20 2.34  25 2.35  25 2.35  10 3.17  11 3.27
                             8 3.40   8 3.40   4 3.70   4 3.70   1 4.07   1 4.07
   8  0.250  0.577  0.392-  16 2.24  25 2.30  19 2.34  19 2.34  26 2.35  26 2.35   9 3.17  12 3.27
                             7 3.40   7 3.40   3 3.70   3 3.70   2 4.07   2 4.07
   9  0.250  0.747  0.162-  19 2.41  19 2.41  27 2.46  27 2.46  23 2.48  23 2.48  13 2.62  16 2.72
                             8 3.17   5 3.27   1 3.54   3 3.61   3 3.61   2 3.66   2 3.66
  10  0.750  0.253  0.838-  20 2.41  20 2.41  28 2.46  28 2.46  24 2.48  24 2.48  14 2.62  15 2.72
                             7 3.17   6 3.27   2 3.54   4 3.61   4 3.61   1 3.66   1 3.66
  11  0.750  0.753  0.662-  17 2.41  17 2.41  25 2.46  25 2.46  21 2.48  21 2.48  15 2.62  14 2.72
                             6 3.17   7 3.27   3 3.54   1 3.61   1 3.61   4 3.66   4 3.66
  12  0.250  0.247  0.338-  18 2.41  18 2.41  26 2.46  26 2.46  22 2.48  22 2.48  16 2.62  13 2.72
                             5 3.17   8 3.27   4 3.54   2 3.61   2 3.61   3 3.66   3 3.66
  13  0.250  0.976  0.279-   3 2.23   3 2.23   5 2.24   9 2.62  12 2.72
  14  0.750  0.024  0.721-   4 2.23   4 2.23   6 2.24  10 2.62  11 2.72
  15  0.750  0.524  0.779-   1 2.23   1 2.23   7 2.24  11 2.62  10 2.72
  16  0.250  0.476  0.221-   2 2.23   2 2.23   8 2.24  12 2.62   9 2.72
  17  0.250  0.789  0.806-   1 2.26   6 2.34   6 2.34  11 2.41  11 2.41
  18  0.750  0.211  0.194-   2 2.26   5 2.34   5 2.34  12 2.41  12 2.41
  19  0.750  0.711  0.306-   3 2.26   8 2.34   8 2.34   9 2.41   9 2.41
  20  0.250  0.289  0.694-   4 2.26   7 2.34   7 2.34  10 2.41  10 2.41
  21  0.250  0.862  0.535-   4 2.30   3 2.42   3 2.42  11 2.48  11 2.48
  22  0.750  0.138  0.465-   3 2.30   4 2.42   4 2.42  12 2.48  12 2.48
  23  0.750  0.638  0.035-   2 2.30   1 2.42   1 2.42   9 2.48   9 2.48
  24  0.250  0.362  0.965-   1 2.30   2 2.42   2 2.42  10 2.48  10 2.48
  25  0.250  0.591  0.586-   8 2.30   7 2.35   7 2.35  11 2.46  11 2.46
  26  0.750  0.409  0.414-   7 2.30   8 2.35   8 2.35  12 2.46  12 2.46
  27  0.750  0.909  0.086-   6 2.30   5 2.35   5 2.35   9 2.46   9 2.46
  28  0.250  0.091  0.914-   5 2.30   6 2.35   6 2.35  10 2.46  10 2.46
 
  LATTYP: Found a simple orthorhombic cell.
 ALAT       =     3.3454120000
 B/A-ratio  =     2.9002284323
 C/A-ratio  =     3.5248725717
  
  Lattice vectors:
  
 A1 = (   3.3454120000,   0.0000000000,   0.0000000000)
 A2 = (   0.0000000000,   9.7024590000,   0.0000000000)
 A3 = (   0.0000000000,   0.0000000000,  11.7921510000)


Analysis of symmetry for initial positions (statically):
=====================================================================
 Subroutine PRICEL returns:
 Original cell was already a primitive cell.
 

 Routine SETGRP: Setting up the symmetry group for a 
 simple orthorhombic supercell.


 Subroutine GETGRP returns: Found  8 space group operations
 (whereof  2 operations were pure point group operations)
 out of a pool of  8 trial point group operations.


The static configuration has the point symmetry S_2 .
 The point group associated with its full space group is D_2h.


Analysis of symmetry for dynamics (positions and initial velocities):
=====================================================================
 Subroutine PRICEL returns:
 Original cell was already a primitive cell.
 

 Routine SETGRP: Setting up the symmetry group for a 
 simple orthorhombic supercell.


 Subroutine GETGRP returns: Found  8 space group operations
 (whereof  2 operations were pure point group operations)
 out of a pool of  8 trial point group operations.


The dynamic configuration has the point symmetry S_2 .
 The point group associated with its full space group is D_2h.


Analysis of structural, dynamic, and magnetic symmetry:
=====================================================================
 Subroutine PRICEL returns:
 Original cell was already a primitive cell.
 

 Routine SETGRP: Setting up the symmetry group for a 
 simple orthorhombic supercell.


 Subroutine GETGRP returns: Found  8 space group operations
 (whereof  2 operations were pure point group operations)
 out of a pool of  8 trial point group operations.


The overall configuration has the point symmetry S_2 .
 The point group associated with its full space group is D_2h.


 Subroutine INISYM returns: Found  8 space group operations
 (whereof  2 operations are pure point group operations),
 and found     1 'primitive' translations


----------------------------------------------------------------------------------------

                                     Primitive cell                                     

  volume of cell :     382.7582

  direct lattice vectors                    reciprocal lattice vectors
     3.345412000  0.000000000  0.000000000     0.298916845  0.000000000  0.000000000
     0.000000000  9.702459000  0.000000000     0.000000000  0.103066656  0.000000000
     0.000000000  0.000000000 11.792151000     0.000000000  0.000000000  0.084802171

  length of vectors
     3.345412000  9.702459000 11.792151000     0.298916845  0.103066656  0.084802171

  position of ions in fractional coordinates (direct lattice)
     0.250000000  0.582255000  0.893981000
     0.750000000  0.417745000  0.106019000
     0.750000000  0.917745000  0.393981000
     0.250000000  0.082255000  0.606019000
     0.250000000  0.077435000  0.108414000
     0.750000000  0.922565000  0.891586000
     0.750000000  0.422565000  0.608414000
     0.250000000  0.577435000  0.391586000
     0.250000000  0.746726000  0.161676000
     0.750000000  0.253274000  0.838324000
     0.750000000  0.753274000  0.661676000
     0.250000000  0.246726000  0.338324000
     0.250000000  0.976038000  0.278611000
     0.750000000  0.023962000  0.721389000
     0.750000000  0.523962000  0.778611000
     0.250000000  0.476038000  0.221389000
     0.250000000  0.789289000  0.806222000
     0.750000000  0.210711000  0.193778000
     0.750000000  0.710711000  0.306222000
     0.250000000  0.289289000  0.693778000
     0.250000000  0.861571000  0.534972000
     0.750000000  0.138429000  0.465028000
     0.750000000  0.638429000  0.034972000
     0.250000000  0.361571000  0.965028000
     0.250000000  0.591251000  0.586434000
     0.750000000  0.408749000  0.413566000
     0.750000000  0.908749000  0.086434000
     0.250000000  0.091251000  0.913566000

  ion indices of the primitive-cell ions
   primitive index   ion index
                 1           1
                 2           2
                 3           3
                 4           4
                 5           5
                 6           6
                 7           7
                 8           8
                 9           9
                10          10
                11          11
                12          12
                13          13
                14          14
                15          15
                16          16
                17          17
                18          18
                19          19
                20          20
                21          21
                22          22
                23          23
                24          24
                25          25
                26          26
                27          27
                28          28

----------------------------------------------------------------------------------------

 
 
 KPOINTS: Kpoints from vasprun.xml                

Automatic generation of k-mesh.
 Grid dimensions read from file:
 generate k-points for:    8    3    2

 Generating k-lattice:

  Cartesian coordinates                     Fractional coordinates (reciprocal lattice)
     0.037364606  0.000000000  0.000000000     0.125000000  0.000000000  0.000000000
     0.000000000  0.034355552  0.000000000     0.000000000  0.333333333  0.000000000
     0.000000000  0.000000000  0.042401085     0.000000000  0.000000000  0.500000000

  Length of vectors
     0.037364606  0.034355552  0.042401085

  Shift w.r.t. Gamma in fractional coordinates (k-lattice)
     0.000000000  0.000000000  0.000000000

 TETIRR: Found    144 inequivalent tetrahedra from      288
 
 Subroutine IBZKPT returns following result:
 ===========================================
 
 Found     20 irreducible k-points:
 
 Following reciprocal coordinates:
            Coordinates               Weight
  0.000000  0.000000  0.000000      1.000000
  0.125000  0.000000  0.000000      2.000000
  0.250000  0.000000  0.000000      2.000000
  0.375000  0.000000  0.000000      2.000000
  0.500000  0.000000  0.000000      1.000000
  0.000000  0.333333  0.000000      2.000000
  0.125000  0.333333  0.000000      4.000000
  0.250000  0.333333  0.000000      4.000000
  0.375000  0.333333  0.000000      4.000000
  0.500000  0.333333  0.000000      2.000000
  0.000000  0.000000  0.500000      1.000000
  0.125000  0.000000  0.500000      2.000000
  0.250000  0.000000  0.500000      2.000000
  0.375000  0.000000  0.500000      2.000000
  0.500000  0.000000  0.500000      1.000000
  0.000000  0.333333  0.500000      2.000000
  0.125000  0.333333  0.500000      4.000000
  0.250000  0.333333  0.500000      4.000000
  0.375000  0.333333  0.500000      4.000000
  0.500000  0.333333  0.500000      2.000000
 
 Following cartesian coordinates:
            Coordinates               Weight
  0.000000  0.000000  0.000000      1.000000
  0.037365  0.000000  0.000000      2.000000
  0.074729  0.000000  0.000000      2.000000
  0.112094  0.000000  0.000000      2.000000
  0.149458  0.000000  0.000000      1.000000
  0.000000  0.034356  0.000000      2.000000
  0.037365  0.034356  0.000000      4.000000
  0.074729  0.034356  0.000000      4.000000
  0.112094  0.034356  0.000000      4.000000
  0.149458  0.034356  0.000000      2.000000
  0.000000  0.000000  0.042401      1.000000
  0.037365  0.000000  0.042401      2.000000
  0.074729  0.000000  0.042401      2.000000
  0.112094  0.000000  0.042401      2.000000
  0.149458  0.000000  0.042401      1.000000
  0.000000  0.034356  0.042401      2.000000
  0.037365  0.034356  0.042401      4.000000
  0.074729  0.034356  0.042401      4.000000
  0.112094  0.034356  0.042401      4.000000
  0.149458  0.034356  0.042401      2.000000
 


--------------------------------------------------------------------------------------------------------




 Dimension of arrays:
   k-points           NKPTS =     20   k-points in BZ     NKDIM =     20   number of bands    NBANDS=    160
   number of dos      NEDOS =    301   number of ions     NIONS =     28
   non local maximal  LDIM  =      8   non local SUM 2l+1 LMDIM =     32
   total plane-waves  NPLWV = 181440
   max r-space proj   IRMAX =  13378   max aug-charges    IRDMAX= 299281
   dimension x,y,z NGX =    28 NGY =   72 NGZ =   90
   dimension x,y,z NGXF=    56 NGYF=  144 NGZF=  180
   support grid    NGXF=   112 NGYF=  288 NGZF=  360
   ions per type =               8   4  16
   NGX,Y,Z   is equivalent  to a cutoff of  13.91, 12.34, 12.69 a.u.
   NGXF,Y,Z  is equivalent  to a cutoff of  27.83, 24.67, 25.38 a.u.

 SYSTEM =  unknown system                          
 POSCAR =  Yb8 Eu4 O16                             

 Startparameter for this run:
   NWRITE =      2    write-flag & timer
   PREC   = accura    normal or accurate (medium, high low for compatibility)
   ISTART =      0    job   : 0-new  1-cont  2-samecut
   ICHARG =      0    charge: 1-file 2-atom 10-const
   ISPIN  =      2    spin polarized calculation?
   LNONCOLLINEAR =      F non collinear calculations
   LSORBIT =      F    spin-orbit coupling
   INIWAV =      1    electr: 0-lowe 1-rand  2-diag
   LASPH  =      T    aspherical Exc in radial PAW
 Electronic Relaxation 1
   ENCUT  =  520.0 eV  38.22 Ry    6.18 a.u.   6.22 18.04 21.93*2*pi/ulx,y,z
   ENINI  =  520.0     initial cutoff
   ENAUG  =  605.4 eV  augmentation charge cutoff
   NELM   =   1000;   NELMIN=  2; NELMDL= -5     # of ELM steps 
   EDIFF  = 0.1E-02   stopping-criterion for ELM
   LREAL  =      T    real-space projection
   NLSPLINE    = F    spline interpolate recip. space projectors
   LCOMPAT=      F    compatible to vasp.4.4
   GGA_COMPAT  = T    GGA compatible to vasp.4.4-vasp.4.6
   LMAXPAW     = -100 max onsite density
   LMAXMIX     =    2 max onsite mixed and CHGCAR
   VOSKOWN=      0    Vosko Wilk Nusair interpolation
   ROPT   =   -0.00025  -0.00025  -0.00025
 Ionic relaxation
   EDIFFG = 0.1E-01   stopping-criterion for IOM
   NSW    =      0    number of steps for IOM
   NBLOCK =      1;   KBLOCK =      1    inner block; outer block 
   IBRION =     -1    ionic relax: 0-MD 1-quasi-New 2-CG
   NFREE  =      0    steps in history (QN), initial steepest desc. (CG)
   ISIF   =      3    stress and relaxation
   IWAVPR =     10    prediction:  0-non 1-charg 2-wave 3-comb
   ISYM   =      2    0-nonsym 1-usesym 2-fastsym
   LCORR  =      T    Harris-Foulkes like correction to forces

   POTIM  = 0.5000    time-step for ionic-motion
   TEIN   =    0.0    initial temperature
   TEBEG  =    0.0;   TEEND  =   0.0 temperature during run
   SMASS  =  -3.00    Nose mass-parameter (am)
   estimated Nose-frequenzy (Omega)   =  0.10E-29 period in steps = 0.13E+47 mass=  -0.256E-27a.u.
   SCALEE = 1.0000    scale energy and forces
   NPACO  =    256;   APACO  = 10.0  distance and # of slots for P.C.
   PSTRESS=    0.0 pullay stress

  Mass of Ions in am
   POMASS = 173.04151.97 16.00
  Ionic Valenz
   ZVAL   =   8.00 17.00  6.00
  Atomic Wigner-Seitz radii
   RWIGS  =  -1.00 -1.00 -1.00
  virtual crystal weights 
   VCA    =   1.00  1.00  1.00
   NELECT =     228.0000    total number of electrons
   NUPDOWN=      -1.0000    fix difference up-down

 DOS related values:
   EMIN   =  10.00;   EMAX   =-10.00  energy-range for DOS
   EFERMI =   0.00
   ISMEAR =    -5;   SIGMA  =   0.05  broadening in eV -4-tet -1-fermi 0-gaus

 Electronic relaxation 2 (details)
   IALGO  =     38    algorithm
   LDIAG  =      T    sub-space diagonalisation (order eigenvalues)
   LSUBROT=      F    optimize rotation matrix (better conditioning)
   TURBO    =      0    0=normal 1=particle mesh
   IRESTART =      0    0=no restart 2=restart with 2 vectors
   NREBOOT  =      0    no. of reboots
   NMIN     =      0    reboot dimension
   EREF     =   0.00    reference energy to select bands
   IMIX   =      4    mixing-type and parameters
     AMIX     =   0.40;   BMIX     =  1.00
     AMIX_MAG =   1.60;   BMIX_MAG =  1.00
     AMIN     =   0.10
     WC   =   100.;   INIMIX=   1;  MIXPRE=   1;  MAXMIX= -45

 Intra band minimization:
   WEIMIN = 0.0000     energy-eigenvalue tresh-hold
   EBREAK =  0.22E-05  absolut break condition
   DEPER  =   0.30     relativ break condition  

   TIME   =   0.40     timestep for ELM

  volume/ion in A,a.u.               =      13.67        92.25
  Fermi-wavevector in a.u.,A,eV,Ry     =   1.377458  2.603018 25.815557  1.897390
  Thomas-Fermi vector in A             =   2.502609
 
 Write flags
   LWAVE        =      F    write WAVECAR
   LDOWNSAMPLE  =      F    k-point downsampling of WAVECAR
   LCHARG       =      T    write CHGCAR
   LVTOT        =      F    write LOCPOT, total local potential
   LVHAR        =      T    write LOCPOT, Hartree potential only
   LELF         =      T    write electronic localiz. function (ELF)
   LORBIT       =     11    0 simple, 1 ext, 2 COOP (PROOUT), +10 PAW based schemes


 Dipole corrections
   LMONO  =      F    monopole corrections only (constant potential shift)
   LDIPOL =      F    correct potential (dipole corrections)
   IDIPOL =      0    1-x, 2-y, 3-z, 4-all directions 
   EPSILON=  1.0000000 bulk dielectric constant

 Exchange correlation treatment:
   GGA     =    --    GGA type
   LEXCH   =     8    internal setting for exchange type
   LIBXC   =     F    Libxc                    
   VOSKOWN =     0    Vosko Wilk Nusair interpolation
   LHFCALC =     F    Hartree Fock is set to
   LHFONE  =     F    Hartree Fock one center treatment
   AEXX    =    0.0000 exact exchange contribution

 Linear response parameters
   LEPSILON=     F    determine dielectric tensor
   LRPA    =     F    only Hartree local field effects (RPA)
   LNABLA  =     F    use nabla operator in PAW spheres
   LVEL    =     F    velocity operator in full k-point grid
   CSHIFT  =0.1000    complex shift for real part using Kramers Kronig
   OMEGAMAX=  -1.0    maximum frequency
   DEG_THRESHOLD= 0.2000000E-02 threshold for treating states as degnerate
   RTIME   =   -0.100 relaxation time in fs
  (WPLASMAI=    0.000 imaginary part of plasma frequency in eV, 0.658/RTIME)
   DFIELD  = 0.0000000 0.0000000 0.0000000 field for delta impulse in time
 
  Optional k-point grid parameters
   LKPOINTS_OPT  =     F    use optional k-point grid
   KPOINTS_OPT_MODE=     1    mode for optional k-point grid
 
 Orbital magnetization related:
   ORBITALMAG=     F  switch on orbital magnetization
   LCHIMAG   =     F  perturbation theory with respect to B field
   DQ        =  0.001000  dq finite difference perturbation B field
   LLRAUG    =     F  two centre corrections for induced B field



--------------------------------------------------------------------------------------------------------


 Static calculation
 charge density and potential will be updated during run
 spin polarized calculation
 Variant of blocked Davidson
 Davidson routine will perform the subspace rotation
 perform sub-space diagonalisation
    after iterative eigenvector-optimisation
 modified Broyden-mixing scheme, WC =      100.0
 initial mixing is a Kerker type mixing with AMIX =  0.4000 and BMIX =      1.0000
 Hartree-type preconditioning will be used
 using additional bands            46
 real space projection scheme for non local part
 use partial core corrections
 calculate Harris-corrections to forces 
   (improved forces if not selfconsistent)
 use gradient corrections 
 use of overlap-Matrix (Vanderbilt PP)
 Fermi weights with tetrahedron method with Bloechl corrections


--------------------------------------------------------------------------------------------------------


  energy-cutoff  :      520.00
  volume of cell :      382.76
      direct lattice vectors                 reciprocal lattice vectors
     3.345412000  0.000000000  0.000000000     0.298916845  0.000000000  0.000000000
     0.000000000  9.702459000  0.000000000     0.000000000  0.103066656  0.000000000
     0.000000000  0.000000000 11.792151000     0.000000000  0.000000000  0.084802171

  length of vectors
     3.345412000  9.702459000 11.792151000     0.298916845  0.103066656  0.084802171


 
 k-points in units of 2pi/SCALE and weight: Kpoints from vasprun.xml                
   0.00000000  0.00000000  0.00000000       0.021
   0.03736461  0.00000000  0.00000000       0.042
   0.07472921  0.00000000  0.00000000       0.042
   0.11209382  0.00000000  0.00000000       0.042
   0.14945842  0.00000000  0.00000000       0.021
   0.00000000  0.03435555  0.00000000       0.042
   0.03736461  0.03435555  0.00000000       0.083
   0.07472921  0.03435555  0.00000000       0.083
   0.11209382  0.03435555  0.00000000       0.083
   0.14945842  0.03435555  0.00000000       0.042
   0.00000000  0.00000000  0.04240109       0.021
   0.03736461  0.00000000  0.04240109       0.042
   0.07472921  0.00000000  0.04240109       0.042
   0.11209382  0.00000000  0.04240109       0.042
   0.14945842  0.00000000  0.04240109       0.021
   0.00000000  0.03435555  0.04240109       0.042
   0.03736461  0.03435555  0.04240109       0.083
   0.07472921  0.03435555  0.04240109       0.083
   0.11209382  0.03435555  0.04240109       0.083
   0.14945842  0.03435555  0.04240109       0.042
 
 k-points in reciprocal lattice and weights: Kpoints from vasprun.xml                
   0.00000000  0.00000000  0.00000000       0.021
   0.12500000  0.00000000  0.00000000       0.042
   0.25000000  0.00000000  0.00000000       0.042
   0.37500000  0.00000000  0.00000000       0.042
   0.50000000  0.00000000  0.00000000       0.021
   0.00000000  0.33333333  0.00000000       0.042
   0.12500000  0.33333333  0.00000000       0.083
   0.25000000  0.33333333  0.00000000       0.083
   0.37500000  0.33333333  0.00000000       0.083
   0.50000000  0.33333333  0.00000000       0.042
   0.00000000  0.00000000  0.50000000       0.021
   0.12500000  0.00000000  0.50000000       0.042
   0.25000000  0.00000000  0.50000000       0.042
   0.37500000  0.00000000  0.50000000       0.042
   0.50000000  0.00000000  0.50000000       0.021
   0.00000000  0.33333333  0.50000000       0.042
   0.12500000  0.33333333  0.50000000       0.083
   0.25000000  0.33333333  0.50000000       0.083
   0.37500000  0.33333333  0.50000000       0.083
   0.50000000  0.33333333  0.50000000       0.042
 
 position of ions in fractional coordinates (direct lattice) 
   0.25000000  0.58225500  0.89398100
   0.75000000  0.41774500  0.10601900
   0.75000000  0.91774500  0.39398100
   0.25000000  0.08225500  0.60601900
   0.25000000  0.07743500  0.10841400
   0.75000000  0.92256500  0.89158600
   0.75000000  0.42256500  0.60841400
   0.25000000  0.57743500  0.39158600
   0.25000000  0.74672600  0.16167600
   0.75000000  0.25327400  0.83832400
   0.75000000  0.75327400  0.66167600
   0.25000000  0.24672600  0.33832400
   0.25000000  0.97603800  0.27861100
   0.75000000  0.02396200  0.72138900
   0.75000000  0.52396200  0.77861100
   0.25000000  0.47603800  0.22138900
   0.25000000  0.78928900  0.80622200
   0.75000000  0.21071100  0.19377800
   0.75000000  0.71071100  0.30622200
   0.25000000  0.28928900  0.69377800
   0.25000000  0.86157100  0.53497200
   0.75000000  0.13842900  0.46502800
   0.75000000  0.63842900  0.03497200
   0.25000000  0.36157100  0.96502800
   0.25000000  0.59125100  0.58643400
   0.75000000  0.40874900  0.41356600
   0.75000000  0.90874900  0.08643400
   0.25000000  0.09125100  0.91356600
 
 position of ions in cartesian coordinates  (Angst):
   0.83635300  5.64930527 10.54195894
   2.50905900  4.05315373  1.25019206
   2.50905900  8.90438323  4.64588344
   0.83635300  0.79807577  7.14626756
   0.83635300  0.75130991  1.27843426
   2.50905900  8.95114909 10.51371674
   2.50905900  4.09991959  7.17450976
   0.83635300  5.60253941  4.61764124
   0.83635300  7.24507840  1.90650781
   2.50905900  2.45738060  9.88564319
   2.50905900  7.30861010  7.80258331
   0.83635300  2.39384890  3.98956769
   0.83635300  9.46996868  3.28542298
   2.50905900  0.23249032  8.50672802
   2.50905900  5.08371982  9.18149848
   0.83635300  4.61873918  2.61065252
   0.83635300  7.65804416  9.50709156
   2.50905900  2.04441484  2.28505944
   2.50905900  6.89564434  3.61101606
   0.83635300  2.80681466  8.18113494
   0.83635300  8.35935730  6.30847060
   2.50905900  1.34310170  5.48368040
   2.50905900  6.19433120  0.41239510
   0.83635300  3.50812780 11.37975590
   0.83635300  5.73658859  6.91531828
   2.50905900  3.96587041  4.87683272
   2.50905900  8.81709991  1.01924278
   0.83635300  0.88535909 10.77290822
 


--------------------------------------------------------------------------------------------------------


 k-point   1 :   0.0000 0.0000 0.0000  plane waves:   10267
 k-point   2 :   0.1250 0.0000 0.0000  plane waves:   10315
 k-point   3 :   0.2500 0.0000 0.0000  plane waves:   10308
 k-point   4 :   0.3750 0.0000 0.0000  plane waves:   10322
 k-point   5 :   0.5000 0.0000 0.0000  plane waves:   10320
 k-point   6 :   0.0000 0.3333 0.0000  plane waves:   10328
 k-point   7 :   0.1250 0.3333 0.0000  plane waves:   10302
 k-point   8 :   0.2500 0.3333 0.0000  plane waves:   10289
 k-point   9 :   0.3750 0.3333 0.0000  plane waves:   10310
 k-point  10 :   0.5000 0.3333 0.0000  plane waves:   10348
 k-point  11 :   0.0000 0.0000 0.5000  plane waves:   10308
 k-point  12 :   0.1250 0.0000 0.5000  plane waves:   10292
 k-point  13 :   0.2500 0.0000 0.5000  plane waves:   10296
 k-point  14 :   0.3750 0.0000 0.5000  plane waves:   10314
 k-point  15 :   0.5000 0.0000 0.5000  plane waves:   10304
 k-point  16 :   0.0000 0.3333 0.5000  plane waves:   10338
 k-point  17 :   0.1250 0.3333 0.5000  plane waves:   10316
 k-point  18 :   0.2500 0.3333 0.5000  plane waves:   10290
 k-point  19 :   0.3750 0.3333 0.5000  plane waves:   10322
 k-point  20 :   0.5000 0.3333 0.5000  plane waves:   10324

 maximum and minimum number of plane-waves per node :     10348    10267

 maximum number of plane-waves:     10348
 maximum index in each direction: 
   IXMAX=    6   IYMAX=   18   IZMAX=   21
   IXMIN=   -6   IYMIN=  -18   IZMIN=  -22


 serial   3D FFT for wavefunctions
 parallel 3D FFT for charge:
    minimum data exchange during FFTs selected (reduces bandwidth)


 total amount of memory used by VASP MPI-rank0   443952. kBytes
=======================================================================

   base      :      30000. kBytes
   nonlr-proj:      35380. kBytes
   fftplans  :      53869. kBytes
   grid      :      46803. kBytes
   one-center:       2752. kBytes
   wavefun   :     275148. kBytes
 
     INWAV:  cpu time      0.0002: real time      0.0004
 Broyden mixing: mesh for mixing (old mesh)
   NGX = 13   NGY = 37   NGZ = 43
  (NGX  = 56   NGY  =144   NGZ  =180)
  gives a total of  20683 points

 charge density for first step will be calculated from the start-wavefunctions


--------------------------------------------------------------------------------------------------------


 Maximum index for non-local projection operator         12956
 Maximum index for augmentation-charges         72421 (set IRDMAX)


--------------------------------------------------------------------------------------------------------


 initial charge from wavefunction
 First call to EWALD:  gamma=   0.244
 Maximum number of real-space cells 5x 2x 2
 Maximum number of reciprocal cells 2x 4x 4

    FEWALD:  cpu time      0.0015: real time      0.0015


--------------------------------------- Iteration      1(   1)  ---------------------------------------


    POTLOK:  cpu time      0.1114: real time      0.1525
    SETDIJ:  cpu time      3.0161: real time      3.0172
     EDDAV:  cpu time      9.5764: real time      9.6188
 BZINTS: Fermi energy:   28.771972;  228.000000 electrons
         Band energy:-0.381010E+04;  BLOECHL correction:   -1.020591
       DOS:  cpu time      0.2101: real time      0.2102
    --------------------------------------------
      LOOP:  cpu time     12.9141: real time     12.9988

 eigenvalue-minimisations  : 21952
 total energy-change (2. order) : 0.2089405E+04  (-0.9266582E+04)
 number of electron     228.0000002 magnetization      -0.0000000
 augmentation part       32.6438648 magnetization      -0.1195947

 Free energy of the ion-electron system (eV)
  ---------------------------------------------------
  alpha Z        PSCENC =      1710.16808492
  Ewald energy   TEWEN  =    -17216.89080070
  -Hartree energ DENC   =      -755.73303240
  -exchange      EXHF   =         0.00000000
  -V(xc)+E(xc)   XCENC  =       478.50599556
  PAW double counting   =     33624.56389566   -33916.90434570
  entropy T*S    EENTRO =         0.00000000
  eigenvalues    EBANDS =     -3810.10106883
  atomic energy  EATOM  =     21975.79661165
  Solvation  Ediel_sol  =         0.00000000
  ---------------------------------------------------
  free energy    TOTEN  =      2089.40534015 eV

  energy without entropy =     2089.40534015  energy(sigma->0) =     2089.40534015


--------------------------------------------------------------------------------------------------------




--------------------------------------- Iteration      1(   2)  ---------------------------------------


     EDDAV:  cpu time      7.2198: real time      7.2248
 BZINTS: Fermi energy:  -12.780677;  228.000000 electrons
         Band energy:-0.103531E+05;  BLOECHL correction:   -0.190091
       DOS:  cpu time      0.2002: real time      0.2003
    --------------------------------------------
      LOOP:  cpu time      7.4200: real time      7.4250

 eigenvalue-minimisations  : 15776
 total energy-change (2. order) :-0.6542971E+04  (-0.5555987E+04)
 number of electron     228.0000002 magnetization      -0.0000000
 augmentation part       32.6438648 magnetization      -0.1195947

 Free energy of the ion-electron system (eV)
  ---------------------------------------------------
  alpha Z        PSCENC =      1710.16808492
  Ewald energy   TEWEN  =    -17216.89080070
  -Hartree energ DENC   =      -755.73303240
  -exchange      EXHF   =         0.00000000
  -V(xc)+E(xc)   XCENC  =       478.50599556
  PAW double counting   =     33624.56389566   -33916.90434570
  entropy T*S    EENTRO =         0.00000000
  eigenvalues    EBANDS =    -10353.07186718
  atomic energy  EATOM  =     21975.79661165
  Solvation  Ediel_sol  =         0.00000000
  ---------------------------------------------------
  free energy    TOTEN  =     -4453.56545820 eV

  energy without entropy =    -4453.56545820  energy(sigma->0) =    -4453.56545820


--------------------------------------------------------------------------------------------------------




--------------------------------------- Iteration      1(   3)  ---------------------------------------


     EDDAV:  cpu time      7.1465: real time      7.1500
 BZINTS: Fermi energy:  -22.552523;  228.000000 electrons
         Band energy:-0.119025E+05;  BLOECHL correction:   -0.117572
       DOS:  cpu time      0.1747: real time      0.1747
    --------------------------------------------
      LOOP:  cpu time      7.3211: real time      7.3247

 eigenvalue-minimisations  : 15496
 total energy-change (2. order) :-0.1549471E+04  (-0.1353988E+04)
 number of electron     228.0000002 magnetization      -0.0000000
 augmentation part       32.6438648 magnetization      -0.1195947

 Free energy of the ion-electron system (eV)
  ---------------------------------------------------
  alpha Z        PSCENC =      1710.16808492
  Ewald energy   TEWEN  =    -17216.89080070
  -Hartree energ DENC   =      -755.73303240
  -exchange      EXHF   =         0.00000000
  -V(xc)+E(xc)   XCENC  =       478.50599556
  PAW double counting   =     33624.56389566   -33916.90434570
  entropy T*S    EENTRO =         0.00000000
  eigenvalues    EBANDS =    -11902.54319164
  atomic energy  EATOM  =     21975.79661165
  Solvation  Ediel_sol  =         0.00000000
  ---------------------------------------------------
  free energy    TOTEN  =     -6003.03678266 eV

  energy without entropy =    -6003.03678266  energy(sigma->0) =    -6003.03678266


--------------------------------------------------------------------------------------------------------




--------------------------------------- Iteration      1(   4)  ---------------------------------------


     EDDAV:  cpu time      7.4596: real time      7.4647
 BZINTS: Fermi energy:  -25.472227;  228.000000 electrons
         Band energy:-0.120970E+05;  BLOECHL correction:   -0.016386
       DOS:  cpu time      0.1647: real time      0.1647
    --------------------------------------------
      LOOP:  cpu time      7.6243: real time      7.6294

 eigenvalue-minimisations  : 16240
 total energy-change (2. order) :-0.1944399E+03  (-0.1899952E+03)
 number of electron     228.0000002 magnetization      -0.0000000
 augmentation part       32.6438648 magnetization      -0.1195947

 Free energy of the ion-electron system (eV)
  ---------------------------------------------------
  alpha Z        PSCENC =      1710.16808492
  Ewald energy   TEWEN  =    -17216.89080070
  -Hartree energ DENC   =      -755.73303240
  -exchange      EXHF   =         0.00000000
  -V(xc)+E(xc)   XCENC  =       478.50599556
  PAW double counting   =     33624.56389566   -33916.90434570
  entropy T*S    EENTRO =         0.00000000
  eigenvalues    EBANDS =    -12096.98308851
  atomic energy  EATOM  =     21975.79661165
  Solvation  Ediel_sol  =         0.00000000
  ---------------------------------------------------
  free energy    TOTEN  =     -6197.47667953 eV

  energy without entropy =    -6197.47667953  energy(sigma->0) =    -6197.47667953


--------------------------------------------------------------------------------------------------------




--------------------------------------- Iteration      1(   5)  ---------------------------------------


     EDDAV:  cpu time      7.9985: real time      8.0036
 BZINTS: Fermi energy:  -25.592206;  228.000000 electrons
         Band energy:-0.121148E+05;  BLOECHL correction:   -0.024035
       DOS:  cpu time      0.1642: real time      0.1642
    CHARGE:  cpu time      0.3929: real time      0.3932
    MIXING:  cpu time      0.0050: real time      0.0050
    --------------------------------------------
      LOOP:  cpu time      8.5606: real time      8.5660

 eigenvalue-minimisations  : 17768
 total energy-change (2. order) :-0.1784286E+02  (-0.1528341E+02)
 number of electron     228.0000007 magnetization      -0.2613534
 augmentation part       68.2297730 magnetization       0.5396555

 Broyden mixing:
  rms(total) = 0.41614E+02    rms(broyden)= 0.41606E+02
  rms(prec ) = 0.52630E+02
  weight for this iteration     100.00

 Free energy of the ion-electron system (eV)
  ---------------------------------------------------
  alpha Z        PSCENC =      1710.16808492
  Ewald energy   TEWEN  =    -17216.89080070
  -Hartree energ DENC   =      -755.73303240
  -exchange      EXHF   =         0.00000000
  -V(xc)+E(xc)   XCENC  =       478.50599556
  PAW double counting   =     33624.56389566   -33916.90434570
  entropy T*S    EENTRO =         0.00000000
  eigenvalues    EBANDS =    -12114.82595246
  atomic energy  EATOM  =     21975.79661165
  Solvation  Ediel_sol  =         0.00000000
  ---------------------------------------------------
  free energy    TOTEN  =     -6215.31954348 eV

  energy without entropy =    -6215.31954348  energy(sigma->0) =    -6215.31954348


--------------------------------------------------------------------------------------------------------




--------------------------------------- Iteration      1(   6)  ---------------------------------------


    POTLOK:  cpu time      0.0101: real time      0.0113
    SETDIJ:  cpu time      3.0300: real time      3.0312
     EDDAV:  cpu time      9.0016: real time      9.0058
 BZINTS: Fermi energy:    8.718800;  228.000000 electrons
         Band energy:-0.374843E+04;  BLOECHL correction:   -0.191500
       DOS:  cpu time      0.1806: real time      0.1807
    CHARGE:  cpu time      0.3911: real time      0.3913
    MIXING:  cpu time      0.0058: real time      0.0085
    --------------------------------------------
      LOOP:  cpu time     12.6192: real time     12.6289

 eigenvalue-minimisations  : 20712
 total energy-change (2. order) : 0.4539093E+04  (-0.1985368E+04)
 number of electron     228.0000005 magnetization      -0.1824051
 augmentation part       41.8996921 magnetization      -0.2398082

 Broyden mixing:
  rms(total) = 0.30316E+02    rms(broyden)= 0.30315E+02
  rms(prec ) = 0.33675E+02
  weight for this iteration     100.00

 eigenvalues of (default mixing * dielectric matrix)
  average eigenvalue GAMMA=   0.6376
  0.6376

 Free energy of the ion-electron system (eV)
  ---------------------------------------------------
  alpha Z        PSCENC =      1710.16808492
  Ewald energy   TEWEN  =    -17216.89080070
  -Hartree energ DENC   =     -3962.58607330
  -exchange      EXHF   =         0.00000000
  -V(xc)+E(xc)   XCENC  =       650.82565792
  PAW double counting   =     33008.23542545   -34093.34557450
  entropy T*S    EENTRO =         0.00000000
  eigenvalues    EBANDS =     -3748.42996592
  atomic energy  EATOM  =     21975.79661165
  Solvation  Ediel_sol  =         0.00000000
  ---------------------------------------------------
  free energy    TOTEN  =     -1676.22663449 eV

  energy without entropy =    -1676.22663449  energy(sigma->0) =    -1676.22663449


--------------------------------------------------------------------------------------------------------




--------------------------------------- Iteration      1(   7)  ---------------------------------------


    POTLOK:  cpu time      0.0102: real time      0.0106
    SETDIJ:  cpu time      3.0385: real time      3.0400
     EDDAV:  cpu time      9.8246: real time      9.8295
 BZINTS: Fermi energy:   -0.928896;  228.000000 electrons
         Band energy:-0.335231E+04;  BLOECHL correction:   -0.049344
       DOS:  cpu time      0.1818: real time      0.1818
    CHARGE:  cpu time      0.3922: real time      0.3924
    MIXING:  cpu time      0.0038: real time      0.0038
    --------------------------------------------
      LOOP:  cpu time     13.4510: real time     13.4581

 eigenvalue-minimisations  : 22712
 total energy-change (2. order) : 0.1202957E+04  (-0.5352239E+03)
 number of electron     228.0000006 magnetization      -0.0964837
 augmentation part       88.3332098 magnetization      -0.2307083

 Broyden mixing:
  rms(total) = 0.14664E+02    rms(broyden)= 0.14659E+02
  rms(prec ) = 0.20245E+02
  weight for this iteration     100.00

 eigenvalues of (default mixing * dielectric matrix)
  average eigenvalue GAMMA=   0.7733
  1.0344  0.5122

 Free energy of the ion-electron system (eV)
  ---------------------------------------------------
  alpha Z        PSCENC =      1710.16808492
  Ewald energy   TEWEN  =    -17216.89080070
  -Hartree energ DENC   =     -3743.80949683
  -exchange      EXHF   =         0.00000000
  -V(xc)+E(xc)   XCENC  =       660.84575309
  PAW double counting   =     27294.27570042   -27801.34116053
  entropy T*S    EENTRO =         0.00000000
  eigenvalues    EBANDS =     -3352.31428847
  atomic energy  EATOM  =     21975.79661165
  Solvation  Ediel_sol  =         0.00000000
  ---------------------------------------------------
  free energy    TOTEN  =      -473.26959646 eV

  energy without entropy =     -473.26959646  energy(sigma->0) =     -473.26959646


--------------------------------------------------------------------------------------------------------




--------------------------------------- Iteration      1(   8)  ---------------------------------------


    POTLOK:  cpu time      0.0097: real time      0.0108
    SETDIJ:  cpu time      3.0355: real time      3.0369
     EDDAV:  cpu time      9.2026: real time      9.2075
 BZINTS: Fermi energy:    7.674758;  228.000000 electrons
         Band energy:-0.239668E+04;  BLOECHL correction:   -0.075155
       DOS:  cpu time      0.1804: real time      0.1804
    CHARGE:  cpu time      0.3977: real time      0.3978
    MIXING:  cpu time      0.0037: real time      0.0037
    --------------------------------------------
      LOOP:  cpu time     12.8296: real time     12.8373

 eigenvalue-minimisations  : 21088
 total energy-change (2. order) :-0.4693408E+03  (-0.1143258E+04)
 number of electron     228.0000004 magnetization      -0.0451093
 augmentation part       44.4403934 magnetization      -0.0715262

 Broyden mixing:
  rms(total) = 0.21176E+02    rms(broyden)= 0.21176E+02
  rms(prec ) = 0.24263E+02
  weight for this iteration     100.00

 eigenvalues of (default mixing * dielectric matrix)
  average eigenvalue GAMMA=   1.0099
  1.3511  1.3511  0.3275

 Free energy of the ion-electron system (eV)
  ---------------------------------------------------
  alpha Z        PSCENC =      1710.16808492
  Ewald energy   TEWEN  =    -17216.89080070
  -Hartree energ DENC   =     -4854.59538047
  -exchange      EXHF   =         0.00000000
  -V(xc)+E(xc)   XCENC  =       695.78916318
  PAW double counting   =     27550.18265004   -28406.38360805
  entropy T*S    EENTRO =         0.00000000
  eigenvalues    EBANDS =     -2396.67709576
  atomic energy  EATOM  =     21975.79661165
  Solvation  Ediel_sol  =         0.00000000
  ---------------------------------------------------
  free energy    TOTEN  =      -942.61037520 eV

  energy without entropy =     -942.61037520  energy(sigma->0) =     -942.61037520


--------------------------------------------------------------------------------------------------------




--------------------------------------- Iteration      1(   9)  ---------------------------------------


    POTLOK:  cpu time      0.0105: real time      0.0112
    SETDIJ:  cpu time      3.0320: real time      3.0330
     EDDAV:  cpu time      8.7005: real time      8.7060
 BZINTS: Fermi energy:    3.940349;  228.000000 electrons
         Band energy:-0.253548E+04;  BLOECHL correction:   -0.016107
       DOS:  cpu time      0.1810: real time      0.1811
    CHARGE:  cpu time      0.3920: real time      0.3924
    MIXING:  cpu time      0.0036: real time      0.0036
    --------------------------------------------
      LOOP:  cpu time     12.3197: real time     12.3274

 eigenvalue-minimisations  : 19928
 total energy-change (2. order) : 0.6912029E+03  (-0.1841054E+03)
 number of electron     228.0000005 magnetization       0.0514350
 augmentation part       62.0952362 magnetization       0.0160236

 Broyden mixing:
  rms(total) = 0.96312E+01    rms(broyden)= 0.96308E+01
  rms(prec ) = 0.10629E+02
  weight for this iteration     100.00

 eigenvalues of (default mixing * dielectric matrix)
  average eigenvalue GAMMA=   1.0948
  2.2524  0.8896  0.8896  0.3478

 Free energy of the ion-electron system (eV)
  ---------------------------------------------------
  alpha Z        PSCENC =      1710.16808492
  Ewald energy   TEWEN  =    -17216.89080070
  -Hartree energ DENC   =     -4396.78428660
  -exchange      EXHF   =         0.00000000
  -V(xc)+E(xc)   XCENC  =       677.17919237
  PAW double counting   =     24543.60295317   -25008.99764008
  entropy T*S    EENTRO =         0.00000000
  eigenvalues    EBANDS =     -2535.48163560
  atomic energy  EATOM  =     21975.79661165
  Solvation  Ediel_sol  =         0.00000000
  ---------------------------------------------------
  free energy    TOTEN  =      -251.40752088 eV

  energy without entropy =     -251.40752088  energy(sigma->0) =     -251.40752088


--------------------------------------------------------------------------------------------------------




--------------------------------------- Iteration      1(  10)  ---------------------------------------


    POTLOK:  cpu time      0.0102: real time      0.0109
    SETDIJ:  cpu time      3.0311: real time      3.0328
     EDDAV:  cpu time      7.0369: real time      7.0407
 BZINTS: Fermi energy:    3.881232;  228.000000 electrons
         Band energy:-0.185557E+04;  BLOECHL correction:   -0.004510
       DOS:  cpu time      0.1767: real time      0.1768
    CHARGE:  cpu time      0.3902: real time      0.3904
    MIXING:  cpu time      0.0049: real time      0.0049
    --------------------------------------------
      LOOP:  cpu time     10.6501: real time     10.6565

 eigenvalue-minimisations  : 15096
 total energy-change (2. order) : 0.4414876E+02  (-0.5960968E+02)
 number of electron     228.0000005 magnetization       0.1373261
 augmentation part       57.6935107 magnetization      -0.0187302

 Broyden mixing:
  rms(total) = 0.88065E+01    rms(broyden)= 0.88061E+01
  rms(prec ) = 0.90786E+01
  weight for this iteration     100.00

 eigenvalues of (default mixing * dielectric matrix)
  average eigenvalue GAMMA=   0.9256
  2.3344  0.8663  0.8663  0.3584  0.2026

 Free energy of the ion-electron system (eV)
  ---------------------------------------------------
  alpha Z        PSCENC =      1710.16808492
  Ewald energy   TEWEN  =    -17216.89080070
  -Hartree energ DENC   =     -5131.32556922
  -exchange      EXHF   =         0.00000000
  -V(xc)+E(xc)   XCENC  =       721.98387067
  PAW double counting   =     22853.68970782   -23265.11356401
  entropy T*S    EENTRO =         0.00000000
  eigenvalues    EBANDS =     -1855.56710249
  atomic energy  EATOM  =     21975.79661165
  Solvation  Ediel_sol  =         0.00000000
  ---------------------------------------------------
  free energy    TOTEN  =      -207.25876137 eV

  energy without entropy =     -207.25876137  energy(sigma->0) =     -207.25876137


--------------------------------------------------------------------------------------------------------




--------------------------------------- Iteration      1(  11)  ---------------------------------------


    POTLOK:  cpu time      0.0105: real time      0.0111
    SETDIJ:  cpu time      3.0260: real time      3.0279
     EDDAV:  cpu time      8.0696: real time      8.0741
 BZINTS: Fermi energy:    3.856415;  228.000000 electrons
         Band energy:-0.186248E+04;  BLOECHL correction:   -0.000000
       DOS:  cpu time      0.1291: real time      0.1292
    CHARGE:  cpu time      0.3895: real time      0.3897
    MIXING:  cpu time      0.0059: real time      0.0059
    --------------------------------------------
      LOOP:  cpu time     11.6306: real time     11.6380

 eigenvalue-minimisations  : 18128
 total energy-change (2. order) :-0.3569889E+01  (-0.5778407E+01)
 number of electron     228.0000004 magnetization       0.5079504
 augmentation part       57.2077919 magnetization       0.0778042

 Broyden mixing:
  rms(total) = 0.83266E+01    rms(broyden)= 0.83265E+01
  rms(prec ) = 0.85669E+01
  weight for this iteration     100.00

 eigenvalues of (default mixing * dielectric matrix)
  average eigenvalue GAMMA=   0.7954
  2.3104  0.8597  0.8597  0.3547  0.1942  0.1942

 Free energy of the ion-electron system (eV)
  ---------------------------------------------------
  alpha Z        PSCENC =      1710.16808492
  Ewald energy   TEWEN  =    -17216.89080070
  -Hartree energ DENC   =     -5136.68099464
  -exchange      EXHF   =         0.00000000
  -V(xc)+E(xc)   XCENC  =       722.04678479
  PAW double counting   =     22777.08517909   -23179.87827682
  entropy T*S    EENTRO =         0.00000000
  eigenvalues    EBANDS =     -1862.47523826
  atomic energy  EATOM  =     21975.79661165
  Solvation  Ediel_sol  =         0.00000000
  ---------------------------------------------------
  free energy    TOTEN  =      -210.82864996 eV

  energy without entropy =     -210.82864996  energy(sigma->0) =     -210.82864996


--------------------------------------------------------------------------------------------------------




--------------------------------------- Iteration      1(  12)  ---------------------------------------


    POTLOK:  cpu time      0.0105: real time      0.0109
    SETDIJ:  cpu time      3.0214: real time      3.0231
     EDDAV:  cpu time     10.4755: real time     10.4813
 BZINTS: Fermi energy:    3.276254;  228.000000 electrons
         Band energy:-0.190046E+04;  BLOECHL correction:   -0.000000
       DOS:  cpu time      0.1109: real time      0.1110
    CHARGE:  cpu time      0.3894: real time      0.3896
    MIXING:  cpu time      0.0047: real time      0.0047
    --------------------------------------------
      LOOP:  cpu time     14.0123: real time     14.0206

 eigenvalue-minimisations  : 24480
 total energy-change (2. order) :-0.7152136E+01  (-0.1490758E+01)
 number of electron     228.0000005 magnetization       3.2588084
 augmentation part       57.3852049 magnetization       2.9056415

 Broyden mixing:
  rms(total) = 0.82593E+01    rms(broyden)= 0.82593E+01
  rms(prec ) = 0.85182E+01
  weight for this iteration     100.00

 eigenvalues of (default mixing * dielectric matrix)
  average eigenvalue GAMMA=   0.8014
  2.2626  0.8752  0.8752  0.5251  0.5251  0.3472  0.1990

 Free energy of the ion-electron system (eV)
  ---------------------------------------------------
  alpha Z        PSCENC =      1710.16808492
  Ewald energy   TEWEN  =    -17216.89080070
  -Hartree energ DENC   =     -5112.74735410
  -exchange      EXHF   =         0.00000000
  -V(xc)+E(xc)   XCENC  =       720.44099735
  PAW double counting   =     22795.67088513   -23189.95447736
  entropy T*S    EENTRO =         0.00000000
  eigenvalues    EBANDS =     -1900.46473276
  atomic energy  EATOM  =     21975.79661165
  Solvation  Ediel_sol  =         0.00000000
  ---------------------------------------------------
  free energy    TOTEN  =      -217.98078587 eV

  energy without entropy =     -217.98078587  energy(sigma->0) =     -217.98078587


--------------------------------------------------------------------------------------------------------




--------------------------------------- Iteration      1(  13)  ---------------------------------------


    POTLOK:  cpu time      0.0103: real time      0.0110
    SETDIJ:  cpu time      3.0171: real time      3.0185
     EDDAV:  cpu time      9.0793: real time      9.0839
 BZINTS: Fermi energy:    1.755878;  228.000000 electrons
         Band energy:-0.200684E+04;  BLOECHL correction:   -0.000000
       DOS:  cpu time      0.1073: real time      0.1074
    CHARGE:  cpu time      0.3880: real time      0.3882
    MIXING:  cpu time      0.0055: real time      0.0055
    --------------------------------------------
      LOOP:  cpu time     12.6076: real time     12.6144

 eigenvalue-minimisations  : 20920
 total energy-change (2. order) : 0.9144033E+01  (-0.9696012E+00)
 number of electron     228.0000005 magnetization       9.1115770
 augmentation part       58.4850982 magnetization       8.3000656

 Broyden mixing:
  rms(total) = 0.68719E+01    rms(broyden)= 0.68718E+01
  rms(prec ) = 0.71187E+01
  weight for this iteration     100.00

 eigenvalues of (default mixing * dielectric matrix)
  average eigenvalue GAMMA=   0.8555
  2.2805  0.9270  0.9270  0.8575  0.8575  0.4483  0.3339  0.2121

 Free energy of the ion-electron system (eV)
  ---------------------------------------------------
  alpha Z        PSCENC =      1710.16808492
  Ewald energy   TEWEN  =    -17216.89080070
  -Hartree energ DENC   =     -5060.72773008
  -exchange      EXHF   =         0.00000000
  -V(xc)+E(xc)   XCENC  =       718.79880328
  PAW double counting   =     22980.45701799   -23309.59519429
  entropy T*S    EENTRO =         0.00000000
  eigenvalues    EBANDS =     -2006.84354572
  atomic energy  EATOM  =     21975.79661165
  Solvation  Ediel_sol  =         0.00000000
  ---------------------------------------------------
  free energy    TOTEN  =      -208.83675295 eV

  energy without entropy =     -208.83675295  energy(sigma->0) =     -208.83675295


--------------------------------------------------------------------------------------------------------




--------------------------------------- Iteration      1(  14)  ---------------------------------------


    POTLOK:  cpu time      0.0102: real time      0.0112
    SETDIJ:  cpu time      3.0062: real time      3.0074
     EDDAV:  cpu time      8.6126: real time      8.6167
 BZINTS: Fermi energy:    1.206287;  228.000000 electrons
         Band energy:-0.202494E+04;  BLOECHL correction:   -0.009002
       DOS:  cpu time      0.1733: real time      0.1734
    CHARGE:  cpu time      0.3911: real time      0.3913
    MIXING:  cpu time      0.0051: real time      0.0051
    --------------------------------------------
      LOOP:  cpu time     12.1988: real time     12.2052

 eigenvalue-minimisations  : 19608
 total energy-change (2. order) : 0.1328616E+01  (-0.8570400E+00)
 number of electron     228.0000005 magnetization       8.9385807
 augmentation part       62.5376638 magnetization      11.1934457

 Broyden mixing:
  rms(total) = 0.54763E+01    rms(broyden)= 0.54758E+01
  rms(prec ) = 0.57869E+01
  weight for this iteration     100.00

 eigenvalues of (default mixing * dielectric matrix)
  average eigenvalue GAMMA=   0.7611
  2.2804  0.9215  0.9215  0.8572  0.8572  0.4515  0.3343  0.2121  0.0146

 Free energy of the ion-electron system (eV)
  ---------------------------------------------------
  alpha Z        PSCENC =      1710.16808492
  Ewald energy   TEWEN  =    -17216.89080070
  -Hartree energ DENC   =     -5107.97611812
  -exchange      EXHF   =         0.00000000
  -V(xc)+E(xc)   XCENC  =       729.82377234
  PAW double counting   =     22996.26735153   -23269.75578020
  entropy T*S    EENTRO =         0.00000000
  eigenvalues    EBANDS =     -2024.94125883
  atomic energy  EATOM  =     21975.79661165
  Solvation  Ediel_sol  =         0.00000000
  ---------------------------------------------------
  free energy    TOTEN  =      -207.50813742 eV

  energy without entropy =     -207.50813742  energy(sigma->0) =     -207.50813742


--------------------------------------------------------------------------------------------------------




--------------------------------------- Iteration      1(  15)  ---------------------------------------


    POTLOK:  cpu time      0.0105: real time      0.0110
    SETDIJ:  cpu time      3.0046: real time      3.0060
     EDDAV:  cpu time      8.5231: real time      8.5277
 BZINTS: Fermi energy:    1.201167;  228.000000 electrons
         Band energy:-0.203075E+04;  BLOECHL correction:   -0.016455
       DOS:  cpu time      0.1769: real time      0.1771
    CHARGE:  cpu time      0.3934: real time      0.3938
    MIXING:  cpu time      0.0062: real time      0.0062
    --------------------------------------------
      LOOP:  cpu time     12.1145: real time     12.1218

 eigenvalue-minimisations  : 19376
 total energy-change (2. order) :-0.3182258E+01  (-0.1057861E+01)
 number of electron     228.0000005 magnetization       9.2729073
 augmentation part       63.8209242 magnetization       9.6153730

 Broyden mixing:
  rms(total) = 0.59898E+01    rms(broyden)= 0.59896E+01
  rms(prec ) = 0.64981E+01
  weight for this iteration     100.00

 eigenvalues of (default mixing * dielectric matrix)
  average eigenvalue GAMMA=   0.7589
  2.3065  1.0465  1.0465  0.9530  0.7303  0.5348  0.3373  0.2137  0.2105  0.2105

 Free energy of the ion-electron system (eV)
  ---------------------------------------------------
  alpha Z        PSCENC =      1710.16808492
  Ewald energy   TEWEN  =    -17216.89080070
  -Hartree energ DENC   =     -5102.82014171
  -exchange      EXHF   =         0.00000000
  -V(xc)+E(xc)   XCENC  =       729.25542399
  PAW double counting   =     22997.09063214   -23272.54364047
  entropy T*S    EENTRO =         0.00000000
  eigenvalues    EBANDS =     -2030.74656475
  atomic energy  EATOM  =     21975.79661165
  Solvation  Ediel_sol  =         0.00000000
  ---------------------------------------------------
  free energy    TOTEN  =      -210.69039494 eV

  energy without entropy =     -210.69039494  energy(sigma->0) =     -210.69039494


--------------------------------------------------------------------------------------------------------




--------------------------------------- Iteration      1(  16)  ---------------------------------------


    POTLOK:  cpu time      0.0100: real time      0.0112
    SETDIJ:  cpu time      3.0243: real time      3.0255
     EDDAV:  cpu time      8.4545: real time      8.4583
 BZINTS: Fermi energy:    0.985902;  228.000000 electrons
         Band energy:-0.216219E+04;  BLOECHL correction:   -0.014053
       DOS:  cpu time      0.1735: real time      0.1736
    CHARGE:  cpu time      0.3924: real time      0.3927
    MIXING:  cpu time      0.0055: real time      0.0055
    --------------------------------------------
      LOOP:  cpu time     12.0602: real time     12.0669

 eigenvalue-minimisations  : 19120
 total energy-change (2. order) :-0.2741317E+02  (-0.1481645E+01)
 number of electron     228.0000005 magnetization      10.6256853
 augmentation part       72.3191421 magnetization      13.4872217

 Broyden mixing:
  rms(total) = 0.78860E+01    rms(broyden)= 0.78854E+01
  rms(prec ) = 0.10619E+02
  weight for this iteration     100.00

 eigenvalues of (default mixing * dielectric matrix)
  average eigenvalue GAMMA=   0.7648
  2.4439  1.2519  1.2519  0.8615  0.8615  0.4856  0.3390  0.3018  0.3018  0.2159
  0.0983

 Free energy of the ion-electron system (eV)
  ---------------------------------------------------
  alpha Z        PSCENC =      1710.16808492
  Ewald energy   TEWEN  =    -17216.89080070
  -Hartree energ DENC   =     -5037.90384867
  -exchange      EXHF   =         0.00000000
  -V(xc)+E(xc)   XCENC  =       727.09445689
  PAW double counting   =     23001.28267369   -23235.46492350
  entropy T*S    EENTRO =         0.00000000
  eigenvalues    EBANDS =     -2162.18581965
  atomic energy  EATOM  =     21975.79661165
  Solvation  Ediel_sol  =         0.00000000
  ---------------------------------------------------
  free energy    TOTEN  =      -238.10356538 eV

  energy without entropy =     -238.10356538  energy(sigma->0) =     -238.10356538


--------------------------------------------------------------------------------------------------------




--------------------------------------- Iteration      1(  17)  ---------------------------------------


    POTLOK:  cpu time      0.0097: real time      0.0106
    SETDIJ:  cpu time      3.0186: real time      3.0200
     EDDAV:  cpu time      8.9841: real time      8.9887
 BZINTS: Fermi energy:    0.900749;  228.000000 electrons
         Band energy:-0.209290E+04;  BLOECHL correction:   -0.000000
       DOS:  cpu time      0.1161: real time      0.1162
    CHARGE:  cpu time      0.3883: real time      0.3885
[...]
  288          m_sumb_d                              0.000132                          2   4
  289        strnlr                                3.680453                            1   3
  290          rspher_all                            0.268953                          9   4
  291          phaser                                1.135591                        180   4
  292          rpro_isp                              2.267644                        180   4
  293            fftwav_mpi                            0.454608                    14400   5
  294              fftwav                                0.436337                  14400   6
  295                fft3d                                 0.096186                14400   7
  296            rpromu_acc                            1.008875                     3600   5
  297          m_sumb_d                              0.000015                          1   4
  298        fft3d_mpi                             0.003801                           22   3
  299          fftbrc_mpi                            0.003005                         22   4
  300            fftbas_plan_mpi                       0.002994                       22   5
  301              map_forward                           0.001141                     20   6
  302                map_gather                            0.000222                   10   7
  303                m_alltoallv_z                         0.000135                   10   7
  304                map_scatter                           0.000619                   10   7
  305              map_backward                          0.001235                     24   6
  306                map_gather                            0.000292                   12   7
  307                m_alltoallv_z                         0.000131                   12   7
  308                map_scatter                           0.000581                   12   7
  309        m_sumb_d                              0.000030                            5   3
  310        forhar                                0.002655                            2   3
  311          m_sumb_d                              0.000052                          2   4
  312        strehar                               0.001799                            1   3
  313          m_sumb_d                              0.000010                          1   4
  314        chggra                                0.000881                            1   3
  315          fft3d_mpi                             0.000529                          3   4
  316            fftbrc_mpi                            0.000408                        3   5
  317              fftbas_plan_mpi                       0.000406                      3   6
  318                map_forward                           0.000208                    4   7
  319                  map_gather                            0.000044                  2   8
  320                  m_alltoallv_z                         0.000030                  2   8
  321                  map_scatter                           0.000101                  2   8
  322                map_backward                          0.000105                    2   7
  323                  map_gather                            0.000025                  1   8
  324                  m_alltoallv_z                         0.000013                  1   8
  325                  map_scatter                           0.000049                  1   8
  326          m_sumb_d                              0.000008                          2   4
  327          pothar                                0.000084                          1   4
  328            m_sumb_d                              0.000006                        1   5
  329        brmix                                 0.011756                            1   3
  330          m_sumb_d                              0.000047                          6   4
  331          brpre                                 0.000036                          2   4
  332          setg0                                 0.001259                          1   4
  333          broyd                                 0.008945                          1   4
  334            brget                                 0.002175                      326   5
  335            brsav                                 0.000996                      163   5
  336            m_sumb_d                              0.000557                       47   5
  337        m_bcast_d                             0.000024                            2   3
  338      potlok                                0.043241                              2   2
  339        fft3d_mpi                             0.027408                           36   3
  340          fftbrc_mpi                            0.023063                         36   4
  341            fftbas_plan_mpi                       0.023047                       36   5
  342              map_forward                           0.006653                     40   6
  343                map_gather                            0.002158                   24   7
  344                m_alltoallv_z                         0.002392                   24   7
  345                map_scatter                           0.001893                   24   7
  346              map_backward                          0.005673                     32   6
  347                map_gather                            0.001942                   16   7
  348                m_alltoallv_z                         0.001877                   16   7
  349                map_scatter                           0.001633                   16   7
  350              dfftw_execute                         0.009079                     30   6
  351        m_sumb_d                              0.000031                            5   3
  352        pothar                                0.001781                            2   3
  353          m_sumb_d                              0.000120                          2   4
  354        m_bcast_d                             0.003055                            4   3
  355      potlok_metagga                        0.000000                              1   2
  356      set_dd_magatom                        0.000004                              1   2
  357      set_dd_paw                            2.799255                              1   2
  358        m_sumb_d                              0.011585                            7   3
  359      augmentation_charge                   0.202903                              1   2
  360        fft3d_mpi                             0.064983                            2   3
  361          fftbrc_mpi                            0.058759                          2   4
  362            fftbas_plan_mpi                       0.058758                        2   5
  363              dfftw_execute                         0.036285                      6   6
  364              map_backward                          0.022184                      4   6
  365                map_gather                            0.006449                    2   7
  366                m_alltoallv_z                         0.008960                    2   7
  367                map_scatter                           0.006764                    2   7
  368      fftwav_mpi                            6.189290                           4800   2
  369        fftwav                                6.183243                         4800   3
  370          fft3d                                 5.723614                       4800   4
  371      densta                               11.316423                              1   2
 
 Flat profile
 ============
 
             routine name                   CPU           calls
 ---------------------------------------------------------------
 set_dd_paw                            413.761922         148
 raccmu_                               257.697126      465952
 eddav                                 238.974838         150
 lapack                                217.181507      465952
 redis_pw                              109.798044     2567792
 m_sumb_d                               98.299421     1417078
 m_alltoall_d                           46.865833     6771328
 phaser                                 38.911227        6260
 densta                                 34.590626         151
 fft3d                                  27.678169     2750532
 eccp                                   25.622749      240000
 orth1                                  24.742506     1398056
 setdij_                                22.540699         174
 redis_proj                             21.465547     3259736
 augmentation_charge                    20.505826         148
 total_time                             17.681069           1
 fftwav                                 17.440675     1818628
 hamiltmu                               13.887183      465952
 w1_copy                                13.705608     2795712
 racc0mu_acc                            13.660594      465952
 dfftw_execute                          13.540852        3996
 overl                                  13.424536     1623848
 init_acc                               11.737816           1
 rpromu_acc                             11.418607      351152
 m_bcast_z                              10.580426      472352
 soft_charge                             9.777302         147
 setup_precond                           8.667370      240000
 m_bcast_d                               7.638165      932205
 ggemm                                   7.269283      585952
 overl_mu                                7.156886      465952
 pw_charge                               5.675583      169220
 vhamil                                  4.212196      931904
 kinhamil                                4.193568      931904
 depsum                                  3.895091         147
 fftext_mpi                              3.840766      931904
 apply_precond                           3.747044      691904
 newband                                 3.658467      471952
 acc_init_cublas                         3.464916           1
 m_alltoallv_z                           3.052239        5789
 fft3d_mpi                               2.471467      937083
 map_scatter                             2.419586        5789
 fftwav_mpi                              2.395877     1818628
 map_gather                              1.950563        5789
 set_charge                              1.612538         147
 rpro_isp                                1.111900         260
 acc_init_cusolver                       1.109513           1
 potlok                                  0.717637         148
 broyd                                   0.672479         146
 acc_cufft_makeplan                      0.409663          19
 rspher_all                              0.400969          14
 brmix                                   0.399220         146
 sphpro_fast                             0.360043           2
 elmin                                   0.349141           1
 w1_projall                              0.335146      345952
 fftbas_plan_mpi                         0.283986        5179
 lincom                                  0.229353        6040
 brget                                   0.208874       29915
 setg0                                   0.188853         148
 truncate_high_frequency_w1              0.090968     1171904
 proall                                  0.089957           1
 brsav                                   0.056184        8446
 orthch                                  0.050025           1
 map_backward                            0.036512        5462
 map_forward                             0.031243        4896
 force_and_stress                        0.029425           1
 stufak                                  0.017742           1
 fft_gq                                  0.017331         147
 choleski                                0.016352          40
 pothar                                  0.013819         149
 strnlr                                  0.008250           1
 brpre                                   0.005205         292
 inisym                                  0.004398           1
 fornlr                                  0.003518           1
 fftbrc_mpi                              0.003086        5179
 forhar                                  0.002603           2
 strelo                                  0.002555           1
 strkin                                  0.001890           1
 strehar                                 0.001789           1
 forloc                                  0.001354           1
 rsp                                     0.000950           1
 set_dd_magatom                          0.000656         148
 vectorpot                               0.000619         147
 fewald                                  0.000349           1
 chggra                                  0.000260           1
 brgrid                                  0.000258           1
 fordep                                  0.000129           1
 posmap                                  0.000049           2
 rcp                                     0.000034           1
 crpa_reader                             0.000026           1
 potlok_metagga                          0.000015         147
 acc_cufft_makeplans                     0.000015           3
 rotate_active_occupied_orbital          0.000000           1
 redis_pw_over_bands                     0.000000           1
 ---------------------------------------------------------------
  summed up times     1830.076657056808     
 
 Accumulative profile
 ====================
 
             routine name                   CPU           calls
 ---------------------------------------------------------------
 total_time                           1830.076657           1
 elmin                                1757.272069           1
 eddav                                1232.804501         150
 set_dd_paw                            417.285923         148
 hamiltmu                              311.564786      465952
 raccmu_                               278.514605      465952
 lapack                                217.181507      465952
 redis_pw                              133.076790     2567792
 m_sumb_d                               98.299421     1417078
 set_charge                             58.854095         147
 newband                                56.901689      471952
 m_alltoall_d                           46.865833     6771328
 redis_proj                             45.052634     3259736
 fftwav_mpi                             40.873926     1818628
 phaser                                 38.911227        6260
 fftwav                                 38.478049     1818628
 setdij_                                35.062292         174
 densta                                 34.590626         151
 fft3d_mpi                              30.430330      937083
 augmentation_charge                    30.076420         148
 fft3d                                  27.678169     2750532
 eccp                                   25.622749      240000
 orth1                                  24.742506     1398056
 soft_charge                            23.140754         147
 fftbrc_mpi                             21.318068        5179
 fftbas_plan_mpi                        21.314983        5179
 kinhamil                               14.950802      931904
 w1_copy                                13.705608     2795712
 racc0mu_acc                            13.660594      465952
 dfftw_execute                          13.540852        3996
 overl                                  13.424536     1623848
 force_and_stress                       13.381534           1
 init_acc                               11.737816           1
 rpromu_acc                             11.418607      351152
 fftext_mpi                             10.757234      931904
 m_bcast_z                              10.580426      472352
 w1_projall                             10.396714      345952
 setup_precond                           8.667370      240000
 m_bcast_d                               7.638165      932205
 ggemm                                   7.269283      585952
 overl_mu                                7.156886      465952
 pw_charge                               5.675583      169220
 vhamil                                  4.212196      931904
 map_backward                            4.009276        5462
 depsum                                  3.940663         147
 apply_precond                           3.747044      691904
 strnlr                                  3.680453           1
 map_forward                             3.480868        4896
 acc_init_cublas                         3.464916           1
 rpro_isp                                3.099282         260
 m_alltoallv_z                           3.052239        5789
 map_scatter                             2.419586        5789
 map_gather                              1.950563        5789
 brmix                                   1.604002         146
 potlok                                  1.571566         148
 fornlr                                  1.228579           1
 fordep                                  1.211570           1
 acc_init_cusolver                       1.109513           1
 broyd                                   1.002344         146
 orthch                                  0.460008           1
 fft_gq                                  0.416420         147
 acc_cufft_makeplans                     0.409678           3
 acc_cufft_makeplan                      0.409663          19
 rspher_all                              0.400969          14
 sphpro_fast                             0.375321           2
 proall                                  0.289217           1
 lincom                                  0.229353        6040
 brget                                   0.208874       29915
 setg0                                   0.188853         148
 truncate_high_frequency_w1              0.090968     1171904
 brsav                                   0.056184        8446
 stufak                                  0.017742           1
 choleski                                0.016352          40
 pothar                                  0.015328         149
 brpre                                   0.005205         292
 inisym                                  0.004447           1
 forloc                                  0.003180           1
 strelo                                  0.002687           1
 forhar                                  0.002655           2
 strkin                                  0.001895           1
 strehar                                 0.001799           1
 fewald                                  0.001461           1
 rsp                                     0.000950           1
 chggra                                  0.000881           1
 set_dd_magatom                          0.000656         148
 vectorpot                               0.000619         147
 brgrid                                  0.000258           1
 posmap                                  0.000049           2
 rcp                                     0.000034           1
 crpa_reader                             0.000026           1
 potlok_metagga                          0.000015         147
 rotate_active_occupied_orbital          0.000000           1
 redis_pw_over_bands                     0.000000           1
 ---------------------------------------------------------------
 
Profiling took   5.707894  2.804399  0.003258  0.003142 seconds
Profiling took   3.541937 seconds
